/*--------------------------------*- C++ -*----------------------------------*\
| =========                 |                                                 |
| \\      /  F ield         | OpenFOAM: The Open Source CFD Toolbox           |
|  \\    /   O peration     | Version:  2012                                  |
|   \\  /    A nd           | Website:  www.openfoam.com                      |
|    \\/     M anipulation  |                                                 |
\*---------------------------------------------------------------------------*/
FoamFile
{
    version     2.0;
    format      ascii;
    class       volScalarField;
    location    "0.02";
    object      p;
}
// * * * * * * * * * * * * * * * * * * * * * * * * * * * * * * * * * * * * * //

dimensions      [1 -1 -2 0 0 0 0];


internalField   nonuniform List<scalar> 
17080
(
1083.15
1081.12
1076.39
1067.44
1051.27
1022.33
970.29
875.497
701.453
562.626
2.9211
0.922275
0.617323
0.437665
0.335304
0.288611
885.712
884.203
880.709
874.083
862.092
840.54
801.472
729.192
593.191
515.1
2.81865
0.851166
0.57571
0.411064
0.316214
0.272627
663.844
663.202
661.58
658.465
652.691
642.351
623.652
588.901
520.517
362.561
2.50096
0.716072
0.499537
0.362499
0.280847
0.242645
3.92084
3.90286
3.89161
4.35248
3.82921
3.77083
3.7903
3.61547
3.35487
2.75868
1.26972
0.573631
0.411724
0.30182
0.23416
0.201983
1.70913
1.70354
1.69244
1.67576
1.65346
1.62052
1.60398
1.47444
1.25753
0.958555
0.651381
0.457656
0.32448
0.235257
0.180186
0.153868
1.24017
1.23589
1.22799
1.21808
1.21357
1.19926
1.32923
1.23478
1.0609
0.813718
0.493968
0.336362
0.232431
0.163945
0.121492
0.101065
0.901448
0.897818
0.891123
0.882588
0.874713
0.865702
0.23954
0.18635
0.133094
0.0900254
0.0609285
0.0463998
0.643063
0.639624
0.633186
0.624738
0.616065
0.608743
0.101931
0.0762896
0.0472457
0.0212694
0.00255669
-0.007116
0.439736
0.436145
0.429228
0.419669
0.409011
0.399687
0.0029304
-0.00898923
-0.0246128
-0.0397166
-0.0511947
-0.0573101
0.276191
0.27224
0.264272
0.252276
0.236937
0.22068
-0.0713564
-0.0765482
-0.0842743
-0.0926065
-0.0993171
-0.103006
0.142646
0.138394
0.12936
0.114094
0.0883774
0.0467811
-0.0745871
-0.125375
-0.152558
-0.161231
-0.131313
-0.131952
-0.13388
-0.138009
-0.141718
-0.143852
0.0323196
0.0282654
0.0196333
0.00518466
-0.0174892
-0.0514381
-0.112022
-0.148917
-0.170924
-0.180238
-0.171288
-0.173066
-0.174356
-0.176689
-0.178824
-0.18007
-0.0602242
-0.0636409
-0.0708291
-0.0825273
-0.0998433
-0.123811
-0.156049
-0.180622
-0.196923
-0.205364
-0.205307
-0.207127
-0.208641
-0.210228
-0.211562
-0.212321
-0.139671
-0.142198
-0.147444
-0.15576
-0.167521
-0.182782
-0.200752
-0.215969
-0.226913
-0.233415
-0.235804
-0.237644
-0.239012
-0.240146
-0.241005
-0.241474
-0.210171
-0.211703
-0.214849
-0.219737
-0.226441
-0.234789
-0.244052
-0.252262
-0.258491
-0.262531
-0.264644
-0.266013
-0.266968
-0.26768
-0.268179
-0.268442
-0.275518
-0.276028
-0.277063
-0.278643
-0.280758
-0.283312
-0.28606
-0.288554
-0.290526
-0.291895
-0.292728
-0.293262
-0.293623
-0.293876
-0.294043
-0.294128
670.87
669.01
664.719
656.678
642.403
617.458
574.087
498.906
369.485
246.09
0.973404
0.104091
-0.0969115
-0.233213
-0.31691
-0.356581
520.039
518.67
515.507
509.573
499.025
480.549
448.28
391.838
293.147
211.457
0.88301
0.0507466
-0.130277
-0.255878
-0.333956
-0.371211
331.923
331.374
329.893
327.032
321.876
312.762
296.664
267.989
216.082
118.779
0.653578
-0.0407741
-0.188936
-0.296854
-0.365565
-0.398729
1.91509
1.90718
1.89507
1.87435
1.84251
1.79379
1.72004
1.57145
1.30881
0.909645
0.392781
-0.128917
-0.256669
-0.348885
-0.407775
-0.436319
0.832671
0.827099
0.815993
0.799339
0.777075
0.74437
0.723535
0.607349
0.421421
0.18104
-0.0572471
-0.216796
-0.330086
-0.40822
-0.457421
-0.481199
0.486993
0.482593
0.474338
0.46362
0.456904
0.438469
0.544295
0.456979
0.302776
0.089611
-0.182911
-0.320025
-0.411938
-0.473495
-0.512107
-0.530816
0.204846
0.201085
0.194066
0.184935
0.176093
0.165845
-0.407236
-0.454734
-0.502858
-0.542217
-0.56902
-0.582466
-0.0240898
-0.0276416
-0.0343489
-0.0432836
-0.0526867
-0.0608167
-0.532722
-0.556006
-0.582732
-0.606799
-0.624219
-0.633249
-0.210533
-0.214189
-0.221266
-0.231113
-0.242185
-0.251953
-0.624709
-0.635761
-0.650344
-0.664498
-0.675282
-0.681036
-0.363403
-0.367352
-0.375316
-0.387292
-0.402542
-0.418622
-0.694591
-0.699552
-0.706884
-0.714785
-0.721149
-0.724648
-0.489624
-0.493805
-0.502662
-0.517543
-0.542348
-0.582116
-0.696375
-0.744621
-0.770655
-0.779211
-0.751277
-0.752149
-0.754108
-0.7581
-0.76166
-0.763703
-0.594613
-0.598564
-0.606955
-0.620934
-0.642724
-0.675134
-0.732367
-0.76745
-0.788549
-0.797698
-0.789498
-0.791423
-0.792797
-0.795099
-0.797177
-0.798383
-0.683072
-0.686387
-0.693346
-0.70463
-0.721252
-0.74414
-0.774725
-0.798144
-0.813788
-0.82201
-0.822213
-0.8241
-0.825658
-0.827241
-0.828552
-0.829294
-0.759241
-0.761687
-0.766756
-0.774768
-0.786058
-0.80065
-0.817766
-0.832306
-0.842822
-0.849138
-0.851569
-0.853429
-0.85481
-0.855942
-0.856789
-0.85725
-0.826966
-0.828447
-0.831484
-0.836192
-0.84263
-0.850624
-0.859474
-0.867334
-0.873325
-0.877246
-0.879338
-0.880704
-0.881658
-0.882366
-0.88286
-0.883118
-0.889812
-0.890304
-0.891303
-0.892825
-0.894857
-0.897307
-0.899938
-0.902331
-0.90423
-0.905557
-0.906374
-0.906902
-0.90726
-0.90751
-0.907675
-0.907759
406.805
405.221
401.605
394.943
383.4
363.876
331.362
278.165
193.605
118.757
-0.109982
-0.706087
-0.836168
-0.933264
-0.99644
-1.02734
304.801
303.644
300.997
296.117
287.652
273.308
249.349
209.942
146.741
97.6091
-0.169481
-0.742135
-0.860753
-0.951125
-1.01059
-1.03984
182.47
182.007
180.766
178.4
174.231
167.076
154.941
134.57
101
49.0688
-0.307693
-0.800254
-0.903051
-0.983415
-1.03697
-1.06348
0.71037
0.704916
0.693233
0.673347
0.643126
0.598022
0.532073
0.408452
0.204083
-0.0801925
-0.397023
-0.856927
-0.953225
-1.02536
-1.07274
-1.0961
-0.0711038
-0.0766485
-0.0877979
-0.10467
-0.127453
-0.159604
-0.184134
-0.281749
-0.430177
-0.614421
-0.796734
-0.921289
-1.01145
-1.07493
-1.11562
-1.1355
-0.319353
-0.323915
-0.332684
-0.344609
-0.355013
-0.376613
-0.303613
-0.380284
-0.507334
-0.677611
-0.893692
-1.00438
-1.07971
-1.13099
-1.16358
-1.17951
-0.540583
-0.544578
-0.552223
-0.562649
-0.573879
-0.586568
-1.07716
-1.11696
-1.15751
-1.19103
-1.21407
-1.22569
-0.73056
-0.734327
-0.74159
-0.751634
-0.762852
-0.773171
-1.18438
-1.20428
-1.22736
-1.24828
-1.2635
-1.27142
-0.891101
-0.894887
-0.902312
-0.912871
-0.925111
-0.936404
-1.26479
-1.27457
-1.28746
-1.29999
-1.30956
-1.31468
-1.02595
-1.0299
-1.03788
-1.04993
-1.06529
-1.08154
-1.3269
-1.33157
-1.33827
-1.34542
-1.35117
-1.35432
-1.13907
-1.14312
-1.15164
-1.16582
-1.18894
-1.2253
-1.32555
-1.36894
-1.39286
-1.40133
-1.3775
-1.37892
-1.38101
-1.38477
-1.38807
-1.38994
-1.23419
-1.23794
-1.24587
-1.25895
-1.27906
-1.30854
-1.3592
-1.39081
-1.41022
-1.41914
-1.41245
-1.41472
-1.41629
-1.41855
-1.42052
-1.42165
-1.31493
-1.31805
-1.32457
-1.33506
-1.35035
-1.37117
-1.39853
-1.41975
-1.43415
-1.44198
-1.44273
-1.44476
-1.44641
-1.44798
-1.44925
-1.44995
-1.38483
-1.38712
-1.39185
-1.39928
-1.40966
-1.42297
-1.43845
-1.45169
-1.46139
-1.46736
-1.46988
-1.47178
-1.47318
-1.47431
-1.47513
-1.47557
-1.44721
-1.44859
-1.45142
-1.45578
-1.46171
-1.46902
-1.47708
-1.48427
-1.48981
-1.4935
-1.49556
-1.49691
-1.49786
-1.49856
-1.49904
-1.49929
-1.50521
-1.50566
-1.50659
-1.508
-1.50988
-1.51213
-1.51454
-1.51674
-1.5185
-1.51974
-1.52053
-1.52104
-1.52139
-1.52164
-1.5218
-1.52188
243.275
242.006
239.144
233.976
225.264
211.042
188.401
153.44
102.025
59.9722
-1.0423
-1.50136
-1.58366
-1.64937
-1.69415
-1.71664
178.495
177.574
175.492
171.729
165.383
155.011
138.473
112.873
75.0714
47.9448
-1.08137
-1.52437
-1.60066
-1.66262
-1.70522
-1.72671
103.909
103.535
102.554
100.718
97.5677
92.3425
83.8713
70.4859
50.2253
22.6884
-1.16231
-1.56015
-1.62967
-1.68671
-1.72601
-1.74585
-0.365005
-0.37089
-0.38201
-0.400931
-0.429365
-0.470579
-0.528634
-0.62693
-0.778001
-0.982208
-1.18661
-1.59584
-1.66545
-1.71882
-1.75464
-1.77254
-0.973755
-0.979195
-0.990263
-1.00731
-1.03092
-1.06304
-1.09399
-1.17334
-1.28564
-1.41877
-1.55021
-1.64214
-1.70965
-1.75807
-1.7896
-1.80518
-1.14739
-1.1521
-1.16145
-1.17506
-1.19099
-1.21528
-1.18164
-1.24718
-1.34533
-1.46984
-1.62397
-1.70628
-1.76363
-1.80355
-1.82931
-1.84202
-1.31319
-1.31745
-1.32591
-1.33836
-1.3538
-1.37182
-1.76171
-1.79375
-1.82606
-1.85296
-1.87158
-1.88103
-1.46278
-1.46681
-1.47486
-1.4868
-1.50174
-1.51779
-1.84802
-1.86466
-1.88363
-1.90084
-1.9134
-1.91995
-1.59371
-1.59765
-1.60559
-1.61748
-1.63247
-1.64836
-1.91446
-1.92318
-1.93408
-1.94465
-1.95271
-1.95702
-1.70639
-1.71031
-1.71835
-1.73074
-1.74705
-1.76536
-1.96668
-1.97131
-1.97726
-1.9835
-1.98845
-1.99117
-1.80255
-1.80639
-1.81445
-1.8277
-1.84859
-1.88048
-1.96
-1.99697
-2.01816
-2.02652
-2.00912
-2.01147
-2.01386
-2.01735
-2.0203
-2.02195
-1.88441
-1.88787
-1.89514
-1.90698
-1.92476
-1.95019
-1.99117
-2.01801
-2.03513
-2.04365
-2.04005
-2.04243
-2.04437
-2.04658
-2.0484
-2.04943
-1.95455
-1.95739
-1.96327
-1.97265
-1.98609
-2.00401
-2.02678
-2.04492
-2.05763
-2.06493
-2.06665
-2.06884
-2.0706
-2.07215
-2.07334
-2.07399
-2.01568
-2.01775
-2.02199
-2.0286
-2.03773
-2.04926
-2.06243
-2.07387
-2.08244
-2.08794
-2.09061
-2.09254
-2.09396
-2.09505
-2.09583
-2.09624
-2.07048
-2.07172
-2.07426
-2.07813
-2.08335
-2.08973
-2.09669
-2.10296
-2.10787
-2.11123
-2.11322
-2.11455
-2.11548
-2.11615
-2.1166
-2.11684
-2.12158
-2.12199
-2.12282
-2.12407
-2.12573
-2.1277
-2.12981
-2.13174
-2.1333
-2.13443
-2.13517
-2.13565
-2.13599
-2.13622
-2.13637
-2.13645
143.772
142.806
140.656
136.852
130.618
120.796
105.826
83.9166
53.7147
30.4181
-1.89707
-2.27934
-2.33052
-2.37305
-2.40303
-2.41841
103.985
103.286
101.728
98.9711
94.451
87.3256
76.4595
60.5441
38.5788
23.736
-1.92194
-2.29393
-2.34182
-2.38236
-2.41117
-2.426
59.3855
59.0985
58.3592
57.0032
54.738
51.1107
45.4837
37.0727
25.1987
10.3556
-1.97478
-2.31569
-2.36096
-2.39939
-2.42657
-2.44052
-1.35848
-1.36502
-1.37528
-1.39278
-1.41903
-1.45656
-1.50901
-1.5873
-1.69815
-1.84123
-1.9528
-2.3378
-2.38541
-2.42265
-2.4481
-2.46096
-1.85907
-1.86419
-1.87476
-1.89142
-1.91534
-1.94855
-1.99316
-2.05784
-2.13905
-2.22773
-2.30846
-2.37031
-2.41734
-2.45192
-2.47483
-2.48625
-1.9781
-1.98275
-1.9923
-2.00731
-2.02884
-2.05952
-2.09869
-2.15454
-2.2219
-2.29499
-2.36478
-2.4178
-2.4576
-2.48655
-2.50561
-2.5151
-2.0976
-2.10195
-2.11103
-2.1259
-2.15
-2.18845
-2.30358
-2.3621
-2.40959
-2.44652
-2.45197
-2.47919
-2.50408
-2.52452
-2.53869
-2.54591
-2.20968
-2.21383
-2.22255
-2.23703
-2.26094
-2.29909
-2.41019
-2.46281
-2.5005
-2.52539
-2.51811
-2.53354
-2.5485
-2.56198
-2.57178
-2.57688
-2.31068
-2.31465
-2.323
-2.33682
-2.35917
-2.39417
-2.48885
-2.53407
-2.56411
-2.58177
-2.57045
-2.57954
-2.58823
-2.59673
-2.60316
-2.60658
-2.3995
-2.40328
-2.41122
-2.42425
-2.44458
-2.47536
-2.54753
-2.58436
-2.60819
-2.62135
-2.61209
-2.61756
-2.62258
-2.62779
-2.63185
-2.63406
-2.47653
-2.48004
-2.48742
-2.4995
-2.51788
-2.54481
-2.58881
-2.61789
-2.63703
-2.64734
-2.6453
-2.64871
-2.65181
-2.655
-2.65752
-2.65891
-2.54293
-2.546
-2.55239
-2.56267
-2.57768
-2.59822
-2.62555
-2.64666
-2.66136
-2.66985
-2.67149
-2.67423
-2.67654
-2.67864
-2.68025
-2.68113
-2.60037
-2.60284
-2.60794
-2.61594
-2.62717
-2.64165
-2.65873
-2.67325
-2.68397
-2.69072
-2.6937
-2.69607
-2.6979
-2.69937
-2.70044
-2.701
-2.65081
-2.65259
-2.65624
-2.66185
-2.66948
-2.67891
-2.68937
-2.6987
-2.70593
-2.71082
-2.71362
-2.71553
-2.71691
-2.71793
-2.71862
-2.71898
-2.69625
-2.69733
-2.69949
-2.70279
-2.70717
-2.71244
-2.71811
-2.72329
-2.72744
-2.73039
-2.73226
-2.73352
-2.73439
-2.735
-2.7354
-2.73561
-2.73876
-2.73911
-2.73982
-2.74089
-2.74229
-2.74393
-2.74568
-2.74729
-2.74861
-2.74959
-2.75026
-2.7507
-2.75101
-2.75122
-2.75135
-2.75142
83.8203
83.1156
81.567
78.8835
74.6029
68.0806
58.5301
45.1895
27.6992
14.7725
-2.71371
-3.04517
-3.07448
-3.0998
-3.11828
-3.12795
59.8051
59.2969
58.1779
56.2383
53.144
48.4289
41.5245
31.8807
19.2392
11.0718
-2.72916
-3.05459
-3.08151
-3.10582
-3.12375
-3.13315
33.3318
33.122
32.5866
31.6235
30.0566
27.6302
24.0155
18.8665
11.9822
3.83643
-2.75867
-3.06661
-3.09309
-3.11686
-3.13416
-3.14317
-2.29562
-2.30142
-2.31039
-2.32574
-2.3487
-2.381
-2.42545
-2.49171
-2.5738
-2.67106
-2.74729
-3.07826
-3.10827
-3.13226
-3.14891
-3.15741
-2.72469
-2.72918
-2.73847
-2.7532
-2.77446
-2.80372
-2.84244
-2.89203
-2.95032
-3.0084
-3.05928
-3.09866
-3.12927
-3.15216
-3.16751
-3.17522
-2.8035
-2.80767
-2.81632
-2.83015
-2.85036
-2.87851
-2.91547
-2.95884
-3.00644
-3.05392
-3.09621
-3.13017
-3.15657
-3.17616
-3.1892
-3.19573
-2.88499
-2.88895
-2.89728
-2.91097
-2.93215
-2.96402
-3.02025
-3.0631
-3.10012
-3.13049
-3.14904
-3.16995
-3.18825
-3.20276
-3.21275
-3.21782
-2.96353
-2.96731
-2.97531
-2.9886
-3.0094
-3.04073
-3.09613
-3.13484
-3.16467
-3.18602
-3.19474
-3.2076
-3.21949
-3.22944
-3.23653
-3.24019
-3.03588
-3.03946
-3.04703
-3.05953
-3.07884
-3.1074
-3.15573
-3.18898
-3.21308
-3.22871
-3.23262
-3.24054
-3.24799
-3.25449
-3.25925
-3.26175
-3.10066
-3.10399
-3.11099
-3.1224
-3.13958
-3.16419
-3.20255
-3.22969
-3.24894
-3.26082
-3.26317
-3.26824
-3.2729
-3.27704
-3.28013
-3.28177
-3.15765
-3.16065
-3.16691
-3.17698
-3.1917
-3.21192
-3.23876
-3.25996
-3.27518
-3.28451
-3.28758
-3.29114
-3.29421
-3.29686
-3.29883
-3.29988
-3.20735
-3.20991
-3.21521
-3.22357
-3.23538
-3.25076
-3.26913
-3.28474
-3.29637
-3.30382
-3.3073
-3.31011
-3.31232
-3.31409
-3.31538
-3.31605
-3.25076
-3.2528
-3.25697
-3.26341
-3.27224
-3.28324
-3.29557
-3.30653
-3.31501
-3.32075
-3.324
-3.32628
-3.32794
-3.32917
-3.33003
-3.33046
-3.28915
-3.29062
-3.29358
-3.2981
-3.30413
-3.31141
-3.31929
-3.32647
-3.33221
-3.33628
-3.33885
-3.34057
-3.34177
-3.34261
-3.34317
-3.34345
-3.32393
-3.32481
-3.32657
-3.32922
-3.3327
-3.33683
-3.34121
-3.34525
-3.34855
-3.35098
-3.3526
-3.35368
-3.35441
-3.35492
-3.35524
-3.3554
-3.35657
-3.35686
-3.35744
-3.3583
-3.35941
-3.36071
-3.36208
-3.36335
-3.36441
-3.36521
-3.36577
-3.36615
-3.3664
-3.36657
-3.36667
-3.36672
47.8885
47.3931
46.3173
44.4881
41.6418
37.4337
31.4825
23.4804
13.3754
6.1435
-3.50331
-3.80224
-3.81475
-3.82717
-3.83675
-3.84189
33.5002
33.1438
32.3679
31.048
28.9944
25.9584
21.6658
15.8962
8.61519
4.07274
-3.52695
-3.80683
-3.81824
-3.83037
-3.8398
-3.84485
17.8144
17.6674
17.2927
16.6306
15.5796
14.0004
11.7298
8.62126
4.6303
0.0967021
-3.53569
-3.81124
-3.82385
-3.83628
-3.84564
-3.85057
-3.19317
-3.19944
-3.20753
-3.22165
-3.24078
-3.26671
-3.30198
-3.34787
-3.41847
-3.47497
-3.5097
-3.81494
-3.83138
-3.84469
-3.85401
-3.8588
-3.57459
-3.57822
-3.58547
-3.59687
-3.61319
-3.63534
-3.66401
-3.69891
-3.73707
-3.77194
-3.80213
-3.82503
-3.8427
-3.85591
-3.86475
-3.8692
-3.62189
-3.62518
-3.63195
-3.64272
-3.65825
-3.67933
-3.70608
-3.73612
-3.76731
-3.7967
-3.82212
-3.84245
-3.85818
-3.86978
-3.87748
-3.88132
-3.67136
-3.67447
-3.68099
-3.69155
-3.70721
-3.72922
-3.75937
-3.78752
-3.81294
-3.83439
-3.85066
-3.86485
-3.87651
-3.88543
-3.89147
-3.89451
-3.71979
-3.72277
-3.72905
-3.73929
-3.75455
-3.77601
-3.8053
-3.83064
-3.85151
-3.86738
-3.87773
-3.88713
-3.89509
-3.90138
-3.90574
-3.90797
-3.76512
-3.76795
-3.77389
-3.78351
-3.79771
-3.81734
-3.8434
-3.86529
-3.88233
-3.89429
-3.90098
-3.90709
-3.91229
-3.91649
-3.91945
-3.92098
-3.80633
-3.80895
-3.8144
-3.82313
-3.83574
-3.8527
-3.87419
-3.89226
-3.90601
-3.91523
-3.91994
-3.92402
-3.92739
-3.9301
-3.93202
-3.93303
-3.84309
-3.84542
-3.85023
-3.85783
-3.86853
-3.8824
-3.89881
-3.91306
-3.92393
-3.93118
-3.93505
-3.93797
-3.94023
-3.94199
-3.94322
-3.94385
-3.87552
-3.8775
-3.88154
-3.8878
-3.89638
-3.90709
-3.91911
-3.92984
-3.93819
-3.94388
-3.94717
-3.94942
-3.95103
-3.95221
-3.953
-3.95341
-3.90414
-3.90571
-3.90887
-3.9137
-3.92015
-3.92796
-3.93643
-3.94413
-3.95026
-3.95458
-3.95726
-3.95902
-3.9602
-3.96102
-3.96154
-3.9618
-3.92966
-3.93078
-3.93304
-3.93643
-3.94087
-3.94613
-3.95172
-3.95685
-3.96103
-3.96406
-3.96605
-3.96733
-3.96818
-3.96873
-3.96907
-3.96923
-3.95291
-3.95358
-3.95493
-3.95692
-3.95951
-3.96252
-3.96569
-3.96861
-3.97103
-3.97283
-3.97405
-3.97484
-3.97535
-3.97568
-3.97588
-3.97597
-3.97481
-3.97503
-3.97547
-3.97612
-3.97696
-3.97792
-3.97892
-3.97985
-3.98063
-3.98123
-3.98164
-3.98191
-3.98208
-3.98219
-3.98226
-3.98229
26.4291
26.0923
25.3691
24.1594
22.3163
19.6582
16.0008
11.2191
5.33163
1.21694
-4.28726
-4.54915
-4.55075
-4.55396
-4.55654
-4.55796
17.797
17.5555
17.0347
16.163
14.8348
12.9194
10.2844
6.84055
2.60311
0.0227896
-4.2923
-4.54946
-4.55142
-4.55474
-4.55736
-4.55879
8.44521
8.34658
8.09268
7.65103
6.96425
5.95775
4.55135
2.68261
0.356283
-2.2187
-4.28094
-4.54968
-4.55255
-4.55619
-4.55895
-4.5604
-4.07151
-4.07653
-4.08234
-4.09123
-4.10456
-4.12377
-4.14791
-4.18143
-4.22901
-4.23907
-4.25734
-4.54802
-4.55387
-4.55831
-4.56129
-4.56278
-4.41445
-4.41695
-4.42146
-4.42841
-4.43829
-4.45152
-4.46813
-4.48709
-4.50599
-4.52318
-4.53904
-4.5495
-4.55655
-4.56138
-4.56442
-4.56591
-4.43463
-4.43668
-4.44083
-4.44736
-4.45669
-4.46903
-4.48417
-4.50067
-4.51711
-4.53225
-4.54511
-4.55456
-4.56113
-4.56559
-4.56836
-4.56971
-4.45562
-4.45757
-4.46161
-4.46808
-4.47743
-4.48995
-4.50541
-4.52072
-4.53464
-4.54636
-4.5554
-4.56225
-4.56724
-4.5707
-4.57291
-4.57399
-4.4762
-4.4781
-4.48209
-4.4885
-4.49775
-4.51005
-4.52505
-4.53901
-4.55071
-4.55966
-4.56579
-4.57036
-4.57371
-4.57611
-4.57766
-4.57842
-4.49569
-4.49756
-4.50144
-4.50761
-4.51639
-4.52788
-4.54153
-4.55382
-4.5636
-4.5705
-4.57468
-4.57761
-4.57972
-4.58123
-4.5822
-4.58269
-4.51391
-4.51566
-4.51928
-4.52497
-4.53291
-4.54305
-4.55474
-4.56513
-4.57318
-4.5786
-4.5816
-4.58352
-4.58481
-4.58568
-4.58624
-4.58651
-4.53055
-4.53213
-4.53536
-4.54036
-4.54719
-4.55567
-4.56508
-4.57349
-4.57997
-4.58429
-4.58664
-4.58801
-4.58882
-4.58931
-4.58961
-4.58975
-4.54558
-4.54693
-4.54966
-4.55382
-4.55938
-4.56609
-4.57331
-4.57981
-4.58488
-4.58829
-4.59022
-4.59127
-4.59184
-4.59213
-4.59228
-4.59235
-4.5591
-4.56017
-4.56233
-4.56557
-4.56981
-4.57482
-4.58009
-4.58487
-4.58864
-4.59125
-4.59279
-4.59363
-4.59405
-4.59425
-4.59433
-4.59436
-4.57133
-4.57211
-4.57366
-4.57595
-4.57891
-4.58234
-4.58591
-4.58916
-4.59177
-4.59361
-4.59475
-4.59537
-4.59569
-4.59582
-4.59587
-4.59589
-4.58261
-4.58307
-4.584
-4.58536
-4.5871
-4.58909
-4.59115
-4.59303
-4.59455
-4.59565
-4.59635
-4.59674
-4.59694
-4.59702
-4.59705
-4.59706
-4.59329
-4.59345
-4.59375
-4.5942
-4.59477
-4.59541
-4.59607
-4.59668
-4.59717
-4.59754
-4.59777
-4.59791
-4.59798
-4.59801
-4.59802
-4.59802
13.6932
13.4727
13.0042
12.2305
11.0693
9.42112
7.18845
4.30649
0.780299
-1.71164
-5.01068
-5.29122
-5.28442
-5.28053
-5.27667
-5.27463
8.4489
8.29195
7.95552
7.39917
6.56369
5.3774
3.76954
1.69278
-0.850941
-2.41327
-5.0111
-5.28869
-5.28266
-5.27905
-5.27534
-5.27335
2.73285
2.67141
2.50633
2.22205
1.78654
1.1589
0.296656
-0.830451
-2.2157
-3.75456
-5.01088
-5.28672
-5.28022
-5.27629
-5.2728
-5.27092
-4.9268
-4.93894
-4.94185
-4.94595
-4.95213
-4.96092
-4.97234
-4.98358
-4.9795
-4.98561
-4.99601
-5.28114
-5.27644
-5.27245
-5.26927
-5.26752
-5.25052
-5.25103
-5.25194
-5.25343
-5.25565
-5.2587
-5.26226
-5.26535
-5.26759
-5.2715
-5.27518
-5.2739
-5.27075
-5.26755
-5.26486
-5.26343
-5.24445
-5.2449
-5.24585
-5.24744
-5.24977
-5.25275
-5.2561
-5.25937
-5.26237
-5.26551
-5.2675
-5.26699
-5.26476
-5.2622
-5.26007
-5.25898
-5.23838
-5.23893
-5.24011
-5.24208
-5.24494
-5.24864
-5.25287
-5.25666
-5.25957
-5.2615
-5.26212
-5.26108
-5.25914
-5.25692
-5.25529
-5.25439
-5.23184
-5.23249
-5.23391
-5.23626
-5.23962
-5.24395
-5.2488
-5.25295
-5.25575
-5.25704
-5.25689
-5.25566
-5.25375
-5.25198
-5.25059
-5.24983
-5.22575
-5.2266
-5.2283
-5.23095
-5.2346
-5.23916
-5.24416
-5.2483
-5.25099
-5.25208
-5.25169
-5.25033
-5.24872
-5.24716
-5.24597
-5.24533
-5.22136
-5.2222
-5.22392
-5.22658
-5.2302
-5.23462
-5.23932
-5.24321
-5.24571
-5.24667
-5.24627
-5.24513
-5.24373
-5.24241
-5.24141
-5.24087
-5.21812
-5.21893
-5.22056
-5.22306
-5.22638
-5.23033
-5.23443
-5.23784
-5.24006
-5.24097
-5.24073
-5.23985
-5.23874
-5.23767
-5.23686
-5.23642
-5.21585
-5.21657
-5.21803
-5.2202
-5.22304
-5.22633
-5.22968
-5.23249
-5.23437
-5.23522
-5.23516
-5.23455
-5.23373
-5.23291
-5.23229
-5.23195
-5.2143
-5.21489
-5.21608
-5.21784
-5.22008
-5.22264
-5.22521
-5.22737
-5.22887
-5.2296
-5.22967
-5.22929
-5.22873
-5.22815
-5.22769
-5.22745
-5.21322
-5.21366
-5.21454
-5.21581
-5.21742
-5.21923
-5.22103
-5.22256
-5.22364
-5.22421
-5.22432
-5.22412
-5.22376
-5.22339
-5.22309
-5.22292
-5.21245
-5.21272
-5.21325
-5.21402
-5.21498
-5.21605
-5.21711
-5.21802
-5.21867
-5.21903
-5.21913
-5.21903
-5.21885
-5.21864
-5.21847
-5.21838
-5.21183
-5.21192
-5.2121
-5.21236
-5.21268
-5.21303
-5.21337
-5.21367
-5.21389
-5.21402
-5.21406
-5.21404
-5.21398
-5.21392
-5.21387
-5.21384
6.29941
6.16152
5.87587
5.40918
4.71218
3.72256
2.3707
0.593307
-1.6601
-3.41325
-5.73447
-6.03992
-6.01817
-6.00821
-5.99652
-5.99065
3.00402
2.90681
2.7026
2.3683
1.8683
1.15703
0.182011
-1.10681
-2.74763
-3.87376
-5.7457
-6.03361
-6.01375
-6.00444
-5.99296
-5.98724
-0.719532
-0.753235
-0.853665
-1.02578
-1.28791
-1.66488
-2.18536
-2.8773
-3.75991
-4.79684
-5.74304
-6.02777
-6.00816
-5.99676
-5.98614
-5.98069
-5.79272
-5.77984
-5.77775
-5.7753
-5.77206
-5.76786
-5.76216
-5.75367
-5.74178
-5.73586
-5.76927
-6.0179
-6.00003
-5.98665
-5.97666
-5.97149
-6.09063
-6.08883
-6.08572
-6.08117
-6.07505
-6.0676
-6.0583
-6.04602
-6.03216
-6.02234
-6.01474
-6.00034
-5.9855
-5.97341
-5.96465
-5.96011
-6.05545
-6.05409
-6.05152
-6.04776
-6.04269
-6.03569
-6.02661
-6.01666
-6.00673
-5.99933
-5.99136
-5.98007
-5.96831
-5.95831
-5.95107
-5.94732
-6.02094
-6.02003
-6.01825
-6.01562
-6.0121
-6.00746
-6.00157
-5.99444
-5.98646
-5.97837
-5.96979
-5.96022
-5.95076
-5.9427
-5.93691
-5.9339
-5.98584
-5.98526
-5.98413
-5.98248
-5.98029
-5.97744
-5.97375
-5.96894
-5.96305
-5.95637
-5.94903
-5.94123
-5.93371
-5.92737
-5.92281
-5.92044
-5.95416
-5.95388
-5.95333
-5.95253
-5.95146
-5.95002
-5.94796
-5.94489
-5.94072
-5.93556
-5.92968
-5.92349
-5.91763
-5.9127
-5.90916
-5.90732
-5.92692
-5.92685
-5.92671
-5.92652
-5.92624
-5.92575
-5.9248
-5.92299
-5.92015
-5.91635
-5.91185
-5.90711
-5.90262
-5.89884
-5.89613
-5.89471
-5.90397
-5.90403
-5.90416
-5.90435
-5.90454
-5.90462
-5.90435
-5.90336
-5.90151
-5.89883
-5.89553
-5.892
-5.88864
-5.8858
-5.88376
-5.88269
-5.88473
-5.88486
-5.88512
-5.88549
-5.88592
-5.88627
-5.88635
-5.88588
-5.88473
-5.88291
-5.88058
-5.87805
-5.87561
-5.87353
-5.87203
-5.87125
-5.86845
-5.8686
-5.86889
-5.86931
-5.86978
-5.87021
-5.87044
-5.87026
-5.86958
-5.8684
-5.86683
-5.86509
-5.86339
-5.86193
-5.86087
-5.86032
-5.8544
-5.85453
-5.85479
-5.85514
-5.85555
-5.85593
-5.85616
-5.85613
-5.85576
-5.85504
-5.85405
-5.85293
-5.85183
-5.85087
-5.85018
-5.84981
-5.84188
-5.84197
-5.84214
-5.84237
-5.84264
-5.8429
-5.84306
-5.84308
-5.8429
-5.84252
-5.84199
-5.84137
-5.84075
-5.84022
-5.83983
-5.83962
-5.83024
-5.83027
-5.83033
-5.83042
-5.83051
-5.83061
-5.83067
-5.83069
-5.83064
-5.83053
-5.83036
-5.83017
-5.82998
-5.82981
-5.82969
-5.82962
2.11975
2.03651
1.88692
1.64705
1.28561
0.7573
-0.00890437
-1.12047
-2.74888
-4.22224
-6.53214
-6.80749
-6.75839
-6.73764
-6.71479
-6.70425
-0.113491
-0.174214
-0.280386
-0.449345
-0.704712
-1.08036
-1.63128
-2.44661
-3.66129
-4.60883
-6.51756
-6.79644
-6.75105
-6.73067
-6.70878
-6.69857
-2.70836
-2.72803
-2.78221
-2.8717
-3.00855
-3.20977
-3.50161
-3.9277
-4.55761
-5.43262
-6.49221
-6.77975
-6.73872
-6.71773
-6.69749
-6.68773
-6.66464
-6.6547
-6.64958
-6.64251
-6.63274
-6.61954
-6.60126
-6.57483
-6.5363
-6.49761
-6.51383
-6.76215
-6.7259
-6.7004
-6.68185
-6.67254
-6.95294
-6.94965
-6.94251
-6.93157
-6.91684
-6.89783
-6.87337
-6.8448
-6.81284
-6.78201
-6.76052
-6.72994
-6.70048
-6.67777
-6.66183
-6.65372
-6.87153
-6.86843
-6.86235
-6.85317
-6.84047
-6.82412
-6.80409
-6.77983
-6.755
-6.73498
-6.71689
-6.69344
-6.67071
-6.65223
-6.63924
-6.63259
-6.80444
-6.80211
-6.79738
-6.79018
-6.78039
-6.76789
-6.75264
-6.73471
-6.71537
-6.69625
-6.67756
-6.6584
-6.64057
-6.62599
-6.61574
-6.61048
-6.73729
-6.73547
-6.73184
-6.72635
-6.71894
-6.70954
-6.69814
-6.68488
-6.67034
-6.65533
-6.64029
-6.62531
-6.61159
-6.60036
-6.59245
-6.58838
-6.67855
-6.67723
-6.67458
-6.6706
-6.66525
-6.65847
-6.65024
-6.64058
-6.62976
-6.61823
-6.60648
-6.59499
-6.58459
-6.57607
-6.57006
-6.56696
-6.62838
-6.62746
-6.62561
-6.62282
-6.61907
-6.61432
-6.60849
-6.60156
-6.59366
-6.58507
-6.5762
-6.56757
-6.55978
-6.5534
-6.5489
-6.54657
-6.58613
-6.5855
-6.58426
-6.58237
-6.57982
-6.57657
-6.57252
-6.56763
-6.56197
-6.55571
-6.5492
-6.54285
-6.5371
-6.5324
-6.52907
-6.52734
-6.55055
-6.55015
-6.54933
-6.5481
-6.54642
-6.54424
-6.54149
-6.53812
-6.53414
-6.5297
-6.52504
-6.52047
-6.51633
-6.51293
-6.51051
-6.50926
-6.52027
-6.52002
-6.51951
-6.51874
-6.51767
-6.51625
-6.51444
-6.51218
-6.50948
-6.50644
-6.50322
-6.50005
-6.49716
-6.49479
-6.49309
-6.49222
-6.49395
-6.4938
-6.49351
-6.49305
-6.4924
-6.49154
-6.49041
-6.48898
-6.48726
-6.4853
-6.48321
-6.48115
-6.47927
-6.47771
-6.4766
-6.47602
-6.47035
-6.47028
-6.47013
-6.46989
-6.46956
-6.46909
-6.46848
-6.4677
-6.46675
-6.46566
-6.4645
-6.46334
-6.46229
-6.46141
-6.46078
-6.46046
-6.44835
-6.44832
-6.44828
-6.44821
-6.44811
-6.44797
-6.44779
-6.44755
-6.44725
-6.44692
-6.44655
-6.44619
-6.44586
-6.44558
-6.44539
-6.44528
-0.190947
-0.280227
-0.339057
-0.427433
-0.570013
-0.776534
-1.10671
-1.67267
-2.87447
-6.10349
-7.45315
-7.52972
-7.50038
-7.46688
-7.43001
-7.41301
-1.57235
-1.65897
-1.70871
-1.77443
-1.87563
-2.03263
-2.28261
-2.72761
-3.72947
-6.62062
-7.49992
-7.51151
-7.48788
-7.45618
-7.42117
-7.40489
-5.56011
-5.64266
-5.66474
-5.68674
-5.7215
-5.77905
-5.87922
-6.08258
-6.6259
-8.3856
-7.42595
-7.48366
-7.4667
-7.4365
-7.40468
-7.38944
-7.64481
-7.65796
-7.65028
-7.63823
-7.62169
-7.60048
-7.57593
-7.55015
-7.52523
-7.44131
-7.31008
-7.51743
-7.45399
-7.41179
-7.3824
-7.36797
-7.78389
-7.77762
-7.76555
-7.74689
-7.72077
-7.68622
-7.64343
-7.59485
-7.54293
-7.49603
-7.51725
-7.46113
-7.41397
-7.37829
-7.35382
-7.34158
-7.68753
-7.68255
-7.67272
-7.65776
-7.63722
-7.6108
-7.57861
-7.54159
-7.50225
-7.46521
-7.44434
-7.40549
-7.36981
-7.34152
-7.32208
-7.31226
-7.58568
-7.58191
-7.57427
-7.56262
-7.54675
-7.52654
-7.50204
-7.47372
-7.443
-7.41204
-7.3835
-7.35333
-7.32616
-7.30445
-7.28945
-7.28182
-7.4829
-7.47992
-7.47395
-7.46491
-7.45273
-7.43736
-7.4189
-7.39771
-7.37469
-7.35111
-7.32814
-7.30542
-7.2851
-7.26877
-7.25741
-7.25161
-7.39588
-7.39362
-7.38909
-7.38226
-7.37311
-7.36164
-7.34794
-7.33226
-7.31513
-7.2973
-7.27956
-7.26258
-7.2475
-7.23534
-7.22685
-7.2225
-7.32298
-7.3213
-7.31793
-7.31286
-7.3061
-7.29766
-7.28761
-7.27611
-7.26351
-7.2503
-7.23709
-7.22455
-7.21343
-7.20446
-7.19818
-7.19495
-7.26232
-7.26109
-7.25863
-7.25495
-7.25005
-7.24393
-7.23665
-7.22832
-7.21917
-7.20955
-7.19991
-7.19076
-7.18265
-7.1761
-7.1715
-7.16913
-7.21154
-7.21066
-7.20892
-7.20631
-7.20283
-7.19849
-7.19332
-7.18739
-7.18087
-7.174
-7.16709
-7.16054
-7.15473
-7.15002
-7.14671
-7.14501
-7.16841
-7.16781
-7.16662
-7.16483
-7.16244
-7.15945
-7.1559
-7.15181
-7.14731
-7.14255
-7.13776
-7.13321
-7.12917
-7.12589
-7.12359
-7.1224
-7.13094
-7.13055
-7.12978
-7.12863
-7.12709
-7.12516
-7.12286
-7.12021
-7.11729
-7.11419
-7.11107
-7.1081
-7.10547
-7.10332
-7.10181
-7.10103
-7.09733
-7.09712
-7.09669
-7.09605
-7.09519
-7.09412
-7.09284
-7.09136
-7.08972
-7.08799
-7.08624
-7.08457
-7.08309
-7.08188
-7.08103
-7.08059
-7.06596
-7.0659
-7.06577
-7.06557
-7.0653
-7.06496
-7.06456
-7.0641
-7.06358
-7.06304
-7.06249
-7.06196
-7.0615
-7.06112
-7.06085
-7.06071
-10.8339
-10.823
-10.7981
-10.7563
-10.6952
-10.611
-10.4976
-10.3458
-10.1421
-9.88607
-10.1903
-8.53128
-8.32145
-8.20767
-8.14241
-8.11332
-10.7316
-10.7212
-10.6971
-10.6568
-10.5979
-10.517
-10.4081
-10.2621
-10.0647
-9.81488
-10.1203
-8.49306
-8.29837
-8.19165
-8.13018
-8.10265
-10.4795
-10.4686
-10.447
-10.4109
-10.3583
-10.2864
-10.1899
-10.0599
-9.87984
-9.63423
-9.91112
-8.41827
-8.25425
-8.16119
-8.10695
-8.0823
-10.7546
-10.743
-10.7233
-10.6907
-10.6426
-10.574
-10.4847
-10.3688
-10.2063
-9.93986
-9.04091
-8.31492
-8.19322
-8.11941
-8.07495
-8.05407
-8.87554
-8.86798
-8.85247
-8.8284
-8.79478
-8.75056
-8.69468
-8.62542
-8.53937
-8.43461
-8.31671
-8.20715
-8.12667
-8.07173
-8.03704
-8.02026
-8.57319
-8.56697
-8.55437
-8.53503
-8.50847
-8.47417
-8.4317
-8.38081
-8.32145
-8.25462
-8.18315
-8.1168
-8.06272
-8.02268
-7.99635
-7.98332
-8.37147
-8.3665
-8.35645
-8.34114
-8.32031
-8.29377
-8.26143
-8.22349
-8.18061
-8.13419
-8.08652
-8.04197
-8.00415
-7.97498
-7.95527
-7.94537
-8.21988
-8.21595
-8.20804
-8.19607
-8.17993
-8.15959
-8.13515
-8.10694
-8.07572
-8.04271
-8.00955
-7.97835
-7.95132
-7.93002
-7.9154
-7.90798
-8.1019
-8.09885
-8.09274
-8.08353
-8.07121
-8.05582
-8.0375
-8.0166
-7.99372
-7.96978
-7.94595
-7.92355
-7.904
-7.88843
-7.87764
-7.87214
-8.00724
-8.00492
-8.00028
-7.99332
-7.98405
-7.97254
-7.95895
-7.94354
-7.9268
-7.90938
-7.8921
-7.87589
-7.8617
-7.85034
-7.84243
-7.83838
-7.92993
-7.9282
-7.92475
-7.91958
-7.91272
-7.90425
-7.89428
-7.88304
-7.87087
-7.85826
-7.84577
-7.83407
-7.8238
-7.81557
-7.80982
-7.80687
-7.86578
-7.86453
-7.86201
-7.85826
-7.8533
-7.84718
-7.84001
-7.83195
-7.82324
-7.81423
-7.80532
-7.79698
-7.78966
-7.78377
-7.77966
-7.77754
-7.81152
-7.81064
-7.80888
-7.80625
-7.80278
-7.79851
-7.79351
-7.78791
-7.78186
-7.77561
-7.76943
-7.76365
-7.75857
-7.75448
-7.75162
-7.75015
-7.76446
-7.76388
-7.76272
-7.761
-7.75872
-7.75593
-7.75266
-7.749
-7.74505
-7.74097
-7.73694
-7.73317
-7.72985
-7.72718
-7.72531
-7.72435
-7.72229
-7.72196
-7.72131
-7.72033
-7.71905
-7.71748
-7.71564
-7.71358
-7.71136
-7.70906
-7.7068
-7.70468
-7.70282
-7.70132
-7.70027
-7.69972
-7.68293
-7.68282
-7.68262
-7.68231
-7.68191
-7.68141
-7.68083
-7.68018
-7.67948
-7.67875
-7.67804
-7.67737
-7.67679
-7.67631
-7.67598
-7.67581
-11.0077
-10.9926
-10.9616