/*--------------------------------*- C++ -*----------------------------------*\
| =========                 |                                                 |
| \\      /  F ield         | OpenFOAM: The Open Source CFD Toolbox           |
|  \\    /   O peration     | Version:  2012                                  |
|   \\  /    A nd           | Website:  www.openfoam.com                      |
|    \\/     M anipulation  |                                                 |
\*---------------------------------------------------------------------------*/
FoamFile
{
    version     2.0;
    format      ascii;
    class       volScalarField;
    location    "0.02";
    object      p_rgh;
}
// * * * * * * * * * * * * * * * * * * * * * * * * * * * * * * * * * * * * * //

dimensions      [1 -1 -2 0 0 0 0];


internalField   nonuniform List<scalar> 
17080
(
1389.72
1387.68
1382.95
1374
1357.83
1328.9
1276.85
1182.06
1008.02
715.907
22.0238
1.22884
0.923886
0.744227
0.641866
0.595173
1192.27
1190.77
1187.27
1180.65
1168.65
1147.1
1108.03
1035.75
899.753
668.382
21.243
1.15773
0.882272
0.717627
0.622777
0.579189
817.125
816.483
814.861
811.747
805.972
795.632
776.933
742.182
673.799
515.842
18.2578
1.02263
0.806099
0.669061
0.58741
0.549208
24.6809
24.7412
24.6978
25.0901
24.4584
24.2418
23.9894
23.2613
21.9033
18.5114
1.34637
0.880193
0.718286
0.608382
0.540723
0.508545
2.01569
2.01011
1.99901
1.98232
1.96002
1.92708
1.91054
1.78101
1.56409
1.26512
0.957944
0.764218
0.631042
0.54182
0.486748
0.46043
1.54673
1.54245
1.53455
1.52464
1.52013
1.50583
1.63579
1.54134
1.36746
1.12028
0.80053
0.642925
0.538994
0.470508
0.428055
0.407627
1.20801
1.20438
1.19769
1.18915
1.18128
1.17226
0.546103
0.492912
0.439656
0.396588
0.367491
0.352962
0.949625
0.946186
0.939748
0.931301
0.922627
0.915306
0.408493
0.382852
0.353808
0.327832
0.309119
0.299447
0.746298
0.742708
0.73579
0.726232
0.715574
0.70625
0.309493
0.297573
0.28195
0.266846
0.255368
0.249252
0.582753
0.578802
0.570834
0.558839
0.543499
0.527243
0.235206
0.230014
0.222288
0.213956
0.207245
0.203556
0.449208
0.444956
0.435922
0.420656
0.39494
0.353344
0.231975
0.181187
0.154005
0.145332
0.175249
0.174611
0.172683
0.168553
0.164844
0.162711
0.338882
0.334828
0.326196
0.311747
0.289073
0.255124
0.19454
0.157646
0.135639
0.126324
0.135274
0.133497
0.132206
0.129874
0.127738
0.126493
0.246338
0.242922
0.235733
0.224035
0.206719
0.182752
0.150513
0.125941
0.109639
0.101199
0.101256
0.0994352
0.0979216
0.0963342
0.0950001
0.0942411
0.166891
0.164364
0.159118
0.150803
0.139041
0.123781
0.105811
0.0905934
0.0796495
0.0731477
0.0707586
0.0689181
0.0675508
0.0664164
0.0655578
0.0650886
0.0963915
0.0948598
0.0917139
0.0868258
0.0801219
0.0717737
0.0625101
0.0543003
0.0480717
0.044031
0.0419189
0.0405494
0.0395946
0.0388826
0.0383832
0.0381203
0.0310441
0.0305349
0.0294995
0.0279191
0.0258047
0.0232505
0.0205029
0.0180089
0.0160369
0.0146677
0.0138347
0.0133002
0.0129395
0.0126869
0.0125193
0.0124342
1590.56
1588.7
1584.41
1576.37
1562.09
1537.15
1493.77
1418.59
1289.17
1012.5
45.2197
1.02378
0.822776
0.686474
0.602777
0.563107
1439.73
1438.36
1435.19
1429.26
1418.71
1400.24
1367.97
1311.53
1212.83
977.863
39.2598
0.970434
0.78941
0.66381
0.585731
0.548476
1098.33
1097.78
1096.3
1093.44
1088.28
1079.17
1063.07
1034.39
982.488
885.186
23.3739
0.878913
0.730752
0.622834
0.554123
0.520958
60.2344
59.7168
59.4903
59.0549
58.2604
56.8292
54.2421
49.4839
40.5779
23.5873
1.08255
0.79077
0.663019
0.570803
0.511912
0.483368
1.75236
1.74679
1.73568
1.71903
1.69676
1.66406
1.64322
1.52704
1.34111
1.10073
0.86244
0.702891
0.589601
0.511467
0.462266
0.438488
1.40668
1.40228
1.39403
1.38331
1.37659
1.35816
1.46398
1.37667
1.22246
1.0093
0.736777
0.599663
0.507749
0.446193
0.407581
0.388872
1.12453
1.12077
1.11375
1.10462
1.09578
1.08553
0.512452
0.464954
0.416829
0.377471
0.350667
0.337221
0.895598
0.892046
0.885339
0.876404
0.867001
0.858871
0.386966
0.363681
0.336956
0.312889
0.295469
0.286438
0.709155
0.705499
0.698421
0.688575
0.677503
0.667735
0.294978
0.283927
0.269343
0.255189
0.244406
0.238652
0.556284
0.552336
0.544372
0.532396
0.517145
0.501065
0.225096
0.220136
0.212803
0.204902
0.198539
0.19504
0.430064
0.425883
0.417025
0.402145
0.377339
0.337572
0.223313
0.175067
0.149032
0.140477
0.168411
0.167539
0.165579
0.161588
0.158027
0.155984
0.325075
0.321124
0.312732
0.298753
0.276964
0.244554
0.18732
0.152237
0.131138
0.12199
0.13019
0.128265
0.12689
0.124588
0.12251
0.121305
0.236615
0.2333
0.226341
0.215057
0.198435
0.175548
0.144963
0.121543
0.1059
0.0976774
0.0974748
0.0955871
0.0940294
0.0924461
0.091135
0.090394
0.160446
0.158
0.152931
0.14492
0.13363
0.119038
0.101921
0.0873812
0.076866
0.0705494
0.0681184
0.0662589
0.0648779
0.063746
0.0628982
0.0624376
0.0927213
0.0912405
0.0882035
0.0834957
0.0770574
0.0690635
0.0602136
0.0523532
0.046362
0.0424417
0.0403493
0.0389838
0.0380295
0.0373214
0.0368278
0.0365691
0.0298758
0.0293838
0.0283847
0.0268624
0.0248303
0.0223808
0.0197492
0.0173567
0.0154579
0.0141307
0.0133136
0.0127854
0.0124278
0.0121776
0.0120122
0.0119284
1939.62
1938.03
1934.42
1927.76
1916.21
1896.69
1864.17
1810.98
1726.42
1498.29
39.7306
0.826726
0.696644
0.599549
0.536373
0.505474
1837.61
1836.46
1833.81
1828.93
1820.46
1806.12
1782.16
1742.75
1679.55
1477.14
32.4269
0.790677
0.67206
0.581688
0.522219
0.492969
1562
1561.54
1560.3
1557.93
1553.76
1546.61
1534.47
1514.1
1480.53
1428.6
17.068
0.732559
0.629761
0.549397
0.495838
0.469329
60.8105
59.6833
59.3185
58.6228
57.3774
55.1983
51.4226
44.9353
34.0286
17.0719
0.90587
0.675885
0.579587
0.507457
0.460071
0.436711
1.46171
1.45616
1.44501
1.42814
1.40536
1.37321
1.34868
1.25106
1.10264
0.918392
0.736079
0.611523
0.521362
0.457881
0.417196
0.39731
1.21346
1.2089
1.20013
1.1882
1.1778
1.1562
1.2292
1.15253
1.02548
0.855201
0.63912
0.528434
0.453104
0.401823
0.36923
0.353303
0.992229
0.988234
0.98059
0.970163
0.958934
0.946244
0.455651
0.415857
0.375306
0.341781
0.318743
0.307118
0.802252
0.798485
0.791222
0.781179
0.76996
0.759642
0.348432
0.328528
0.30545
0.284536
0.269315
0.261397
0.641712
0.637925
0.630501
0.619942
0.607701
0.596409
0.268023
0.258238
0.245356
0.232822
0.223252
0.218137
0.506863
0.502917
0.494931
0.482881
0.467527
0.451277
0.205915
0.20124
0.194546
0.187391
0.181645
0.178488
0.393741
0.389697
0.381168
0.366988
0.343873
0.307514
0.207259
0.163872
0.13995
0.131484
0.155316
0.153891
0.151802
0.14804
0.144746
0.142869
0.298626
0.294874
0.286946
0.27386
0.253753
0.224275
0.173616
0.142001
0.122597
0.113672
0.120358
0.118097
0.116523
0.114267
0.112294
0.111164
0.217879
0.214761
0.208245
0.197754
0.18246
0.161646
0.134278
0.113067
0.0986667
0.090836
0.0900815
0.0880542
0.0864063
0.084831
0.0835655
0.0828601
0.147979
0.14569
0.140963
0.133535
0.123149
0.109838
0.0943658
0.0811235
0.0714234
0.065454
0.0629288
0.0610335
0.0596291
0.0585057
0.0576819
0.0572397
0.0856059
0.0842232
0.081396
0.0770343
0.0711049
0.0637889
0.0557316
0.0485393
0.0430014
0.0393109
0.0372561
0.0359013
0.0349516
0.0342543
0.0337744
0.0335252
0.0276068
0.027148
0.0262185
0.0248078
0.0229331
0.0206835
0.0182739
0.0160752
0.0143165
0.0130706
0.012285
0.0117707
0.0114204
0.0111763
0.011016
0.0109353
2389.21
2387.94
2385.08
2379.91
2371.2
2356.98
2334.34
2299.38
2247.96
2052.63
29.2025
0.64458
0.562279
0.496567
0.451791
0.429294
2324.43
2323.51
2321.43
2317.67
2311.32
2300.95
2284.41
2258.81
2221.01
2040.6
22.4234
0.621569
0.545277
0.483313
0.440716
0.419229
2096.56
2096.19
2095.21
2093.37
2090.22
2085
2076.53
2063.14
2042.88
2015.34
10.8479
0.58579
0.516263
0.45923
0.419931
0.400088
50.7187
48.9531
48.5175
47.7005
46.2799
43.8802
39.924
33.5815
23.8794
10.8628
0.729409
0.550096
0.480485
0.427116
0.391301
0.373397
1.17218
1.16674
1.15567
1.13862
1.11502
1.0829
1.05195
0.972599
0.860294
0.727167
0.595724
0.503799
0.436292
0.387871
0.356337
0.340761
0.998544
0.993836
0.984489
0.970877
0.954944
0.930662
0.964298
0.898756
0.800608
0.676101
0.521963
0.439656
0.382312
0.34239
0.316623
0.303918
0.83275
0.828492
0.820026
0.807582
0.792133
0.774121
0.384225
0.352187
0.319878
0.292982
0.274356
0.264907
0.683154
0.679127
0.671076
0.659141
0.644198
0.628145
0.297915
0.281279
0.262311
0.245099
0.232536
0.225983
0.55223
0.54829
0.540348
0.528454
0.513468
0.497578
0.231479
0.222756
0.211855
0.201284
0.193224
0.188916
0.439544
0.435623
0.427587
0.415193
0.398887
0.38058
0.179257
0.174632
0.168675
0.162442
0.157484
0.154772
0.343386
0.339551
0.331491
0.318236
0.29735
0.26546
0.185934
0.148964
0.127782
0.119419
0.136814
0.134464
0.132077
0.128588
0.125641
0.123985
0.261524
0.258064
0.250799
0.23896
0.221174
0.195747
0.154766
0.127932
0.110809
0.102292
0.10589
0.103507
0.101563
0.0993584
0.0975329
0.0965098
0.191384
0.188551
0.182664
0.173289
0.159845
0.141923
0.119162
0.101014
0.0883123
0.0810038
0.0792915
0.0770995
0.0753357
0.073784
0.072593
0.0719431
0.130257
0.128191
0.123948
0.117339
0.10821
0.0966796
0.0835116
0.0720673
0.063493
0.0580023
0.055327
0.0533975
0.051979
0.0508837
0.0501046
0.0496937
0.0754566
0.0742132
0.0716819
0.0678046
0.0625826
0.056206
0.0492473
0.0429797
0.0380721
0.0347065
0.0327129
0.0313865
0.0304574
0.0297865
0.0293334
0.0291013
0.0243615
0.0239496
0.0231182
0.0218633
0.0202073
0.0182346
0.0161317
0.0142014
0.0126385
0.0115088
0.0107723
0.0102827
0.00994787
0.00971615
0.00956567
0.00949054
2902.83
2901.87
2899.72
2895.91
2889.68
2879.86
2864.89
2842.98
2812.78
2636.2
19.5747
0.479723
0.428539
0.386014
0.356033
0.340648
2863.05
2862.35
2860.79
2858.03
2853.51
2846.39
2835.52
2819.61
2797.64
2629.52
13.704
0.465131
0.417245
0.376703
0.347889
0.333062
2665.17
2664.88
2664.14
2662.78
2660.52
2656.89
2651.26
2642.85
2630.98
2616.14
5.81938
0.443372
0.398104
0.359674
0.332492
0.318547
38.4201
36.0924
35.6501
34.834
33.453
31.2156
27.6942
22.3837
14.8276
5.96293
0.576341
0.421265
0.373653
0.336408
0.310966
0.298099
0.89999
0.894868
0.884301
0.86764
0.843723
0.810512
0.7659
0.701221
0.62001
0.531333
0.450599
0.388751
0.341724
0.307138
0.284234
0.272809
0.78096
0.776311
0.766763
0.751757
0.730222
0.699543
0.660376
0.604526
0.537161
0.464074
0.394281
0.341266
0.301465
0.272517
0.253452
0.243962
0.661461
0.657109
0.648036
0.633165
0.609058
0.570613
0.455484
0.396965
0.349468
0.312545
0.307089
0.279873
0.254983
0.234544
0.220369
0.213157
0.549378
0.545231
0.536516
0.522029
0.498119
0.459977
0.348872
0.296254
0.258565
0.233674
0.240955
0.225523
0.210558
0.197078
0.187282
0.182178
0.448385
0.444414
0.436065
0.422243
0.399897
0.364889
0.270217
0.224988
0.194951
0.17729
0.188613
0.179526
0.170832
0.162334
0.155907
0.152485
0.359561
0.355779
0.347839
0.334809
0.314482
0.283701
0.211532
0.174699
0.150868
0.137712
0.146971
0.141504
0.136481
0.131273
0.127208
0.125005
0.282534
0.279021
0.271641
0.259565
0.241178
0.21425
0.170255
0.141168
0.12203
0.111723
0.11376
0.110349
0.107253
0.104066
0.101538
0.100152
0.216135
0.213067
0.206668
0.196389
0.181386
0.160843
0.133514
0.112398
0.0977009
0.0892081
0.0875679
0.0848373
0.0825218
0.0804249
0.0788113
0.0779335
0.158688
0.156219
0.151123
0.143118
0.131895
0.117417
0.100333
0.0858142
0.0750917
0.0683441
0.0653649
0.0629893
0.0611599
0.0596922
0.058627
0.0580612
0.108256
0.10647
0.102824
0.0972089
0.08958
0.0801487
0.0696915
0.0603612
0.0531304
0.0482381
0.0454456
0.0435299
0.0421529
0.0411355
0.0404382
0.0400785
0.0628085
0.061737
0.0595677
0.0562754
0.0518955
0.0466241
0.0409497
0.0357698
0.0316214
0.0286712
0.0267982
0.0255462
0.0246769
0.0240641
0.0236603
0.023457
0.0203043
0.0199499
0.0192378
0.0181707
0.0167754
0.0151293
0.0133865
0.0117743
0.010449
0.00946778
0.0088043
0.00835757
0.00805254
0.0078442
0.00771107
0.00764541
3456.01
3455.3
3453.75
3451.07
3446.79
3440.27
3430.72
3417.38
3399.89
3233.68
12.2593
0.327019
0.297707
0.272388
0.25391
0.244239
3431.99
3431.48
3430.37
3428.43
3425.33
3420.62
3413.71
3404.07
3391.43
3229.98
7.05837
0.317595
0.290682
0.266371
0.248439
0.239034
3252.24
3252.03
3251.49
3250.53
3248.96
3246.54
3242.92
3237.77
3230.89
3222.74
2.78339
0.305573
0.279096
0.255329
0.238028
0.229018
27.2787
24.6172
24.2115
23.4767
22.266
20.3704
17.5159
13.3975
7.84973
2.76323
0.394978
0.29393
0.263922
0.239929
0.223278
0.214776
0.647493
0.643003
0.633715
0.618985
0.597724
0.568463
0.52975
0.480157
0.421867
0.363784
0.31291
0.273523
0.242922
0.220025
0.204679
0.19697
0.568692
0.564519
0.555866
0.542035
0.521832
0.493675
0.456714
0.413345
0.365743
0.318269
0.275977
0.242014
0.215614
0.196025
0.182985
0.176458
0.487193
0.483233
0.474909
0.461219
0.440035
0.408167
0.351938
0.309088
0.272066
0.241701
0.223148
0.202237
0.183941
0.169425
0.159441
0.154371
0.408658
0.404876
0.396876
0.383587
0.362791
0.331458
0.276054
0.237348
0.207515
0.186172
0.177451
0.164588
0.152702
0.142743
0.135659
0.131996
0.336305
0.332723
0.325157
0.312653
0.293346
0.26479
0.216458
0.183203
0.159112
0.14348
0.139572
0.131649
0.1242
0.117695
0.112935
0.110433
0.271526
0.268195
0.261199
0.249784
0.232605
0.207999
0.169635
0.142497
0.12325
0.111372
0.109014
0.10395
0.0992849
0.0951432
0.0920583
0.0904175
0.21454
0.211541
0.20528
0.19521
0.180486
0.16027
0.133427
0.112229
0.0970092
0.0876779
0.0846085
0.0810522
0.0779812
0.0753294
0.0733571
0.0723046
0.16484
0.162277
0.156978
0.148618
0.13681
0.12143
0.103061
0.0874459
0.0758184
0.0683655
0.0648859
0.0620793
0.0598698
0.0580936
0.0568122
0.0561356
0.12143
0.119392
0.115222
0.108773
0.0999521
0.0889505
0.076621
0.0656601
0.0571782
0.0514405
0.0481829
0.0459085
0.0442498
0.0430129
0.042162
0.0417227
0.0830373
0.081572
0.0786026
0.0740873
0.0680613
0.0607772
0.0528961
0.045715
0.0399765
0.0359065
0.0333398
0.0316182
0.0304201
0.0295753
0.029019
0.0287391
0.0482555
0.0473784
0.0456137
0.0429626
0.0394837
0.0353616
0.0309818
0.0269395
0.0236348
0.02121
0.019592
0.0185098
0.0177734
0.0172712
0.0169505
0.0167924
0.0156211
0.0153312
0.0147515
0.01389
0.012775
0.0114739
0.0101068
0.00883443
0.00777429
0.00697384
0.00641807
0.00604243
0.00578936
0.00562069
0.00551558
0.00546464
4033.2
4032.71
4031.63
4029.8
4026.95
4022.75
4016.8
4008.79
3998.69
3838.17
6.93132
0.183073
0.170559
0.158146
0.148561
0.143424
4018.81
4018.46
4017.68
4016.36
4014.31
4011.27
4006.98
4001.21
3993.93
3836.1
2.44152
0.178482
0.167071
0.154942
0.145514
0.140465
3849.85
3849.7
3849.32
3848.66
3847.61
3846.03
3843.76
3840.65
3836.66
3832.13
1.20084
0.174071
0.161458
0.14903
0.139677
0.134739
18.8589
15.7986
15.4528
14.8377
13.8418
12.3194
10.1136
7.01787
2.9835
1.17368
0.245692
0.170373
0.153931
0.140621
0.1313
0.126517
0.410718
0.407095
0.399838
0.388446
0.37212
0.349975
0.321307
0.286398
0.248238
0.213371
0.183184
0.160286
0.142609
0.129407
0.120562
0.116117
0.363419
0.360132
0.353362
0.342596
0.327058
0.305982
0.279232
0.249189
0.217998
0.188612
0.163195
0.142864
0.127136
0.115528
0.107834
0.103991
0.313955
0.310839
0.304322
0.293763
0.278107
0.256089
0.225947
0.197789
0.172368
0.150919
0.134656
0.120463
0.108803
0.0998787
0.0938439
0.0908019
0.265525
0.262539
0.25626
0.246026
0.230765
0.209303
0.180009
0.154669
0.133806
0.117933
0.10758
0.0981875
0.0902265
0.0839285
0.0795703
0.0773447
0.220195
0.217363
0.211424
0.201799
0.187601
0.167974
0.141916
0.120026
0.102983
0.0910202
0.084328
0.07822
0.0730201
0.0688235
0.0658657
0.0643371
0.17898
0.176364
0.170912
0.162184
0.149569
0.132614
0.111118
0.0930476
0.0793065
0.0700864
0.0653682
0.0612905
0.0579232
0.0552128
0.0532882
0.0522867
0.142227
0.139896
0.135079
0.127484
0.116785
0.102915
0.0865059
0.0722561
0.0613806
0.0541319
0.0502642
0.0473392
0.0450803
0.0433264
0.0420963
0.0414578
0.109788
0.107814
0.103773
0.0975128
0.0889356
0.0782213
0.0662021
0.0554734
0.0471249
0.0414314
0.0381377
0.0358879
0.0342783
0.033103
0.032308
0.0319018
0.0811693
0.0796067
0.0764377
0.0716123
0.0651612
0.0573485
0.0488833
0.0411846
0.0350534
0.0307336
0.0280486
0.0262944
0.0251097
0.024297
0.0237724
0.0235114
0.0556535
0.0545317
0.0522753
0.048887
0.044443
0.0391813
0.0335972
0.0284599
0.0242833
0.0212495
0.0192641
0.0179777
0.0171362
0.0165849
0.0162435
0.0160783
0.0324009
0.0317292
0.0303864
0.0283898
0.0258055
0.0227905
0.0196273
0.0166976
0.0142788
0.0124808
0.0112641
0.0104713
0.0099595
0.00963292
0.00943647
0.00934334
0.0105048
0.0102824
0.00984029
0.00918857
0.00835432
0.00739224
0.0063906
0.0054583
0.00467823
0.00408636
0.00367494
0.00340354
0.00322906
0.00311959
0.00305518
0.00302517
4624.87
4624.53
4623.81
4622.6
4620.75
4618.1
4614.44
4609.66
4603.77
4446.37
1.61119
0.0492864
0.047683
0.044481
0.0418934
0.0404749
4616.23
4615.99
4615.47
4614.6
4613.27
4611.36
4608.72
4605.28
4601.04
4445.18
0.317498
0.0489733
0.0470147
0.0437013
0.0410773
0.039652
4453.6
4453.5
4453.25
4452.81
4452.12
4451.11
4449.71
4447.84
4445.51
4442.94
0.492746
0.0487553
0.0458886
0.042247
0.039491
0.0380362
10.7122
10.1993
9.9259
9.45138
8.67602
7.50618
5.80991
3.41491
0.450751
0.502015
0.11118
0.0504159
0.0445666
0.0401268
0.0371484
0.0356568
0.183986
0.181489
0.176974
0.170024
0.160148
0.146922
0.130311
0.11135
0.0924437
0.0752545
0.0593949
0.0489374
0.0418913
0.0370553
0.0340164
0.0325322
0.163803
0.161753
0.15761
0.151073
0.141752
0.129403
0.11427
0.0977707
0.0813314
0.0661849
0.0533275
0.0438802
0.0373042
0.0328505
0.0300784
0.0287303
0.142815
0.140871
0.13683
0.130355
0.121009
0.108492
0.093024
0.0777202
0.0638002
0.0520728
0.0430357
0.0361849
0.0311997
0.0277412
0.0255299
0.024452
0.122241
0.120335
0.116345
0.109936
0.100692
0.0883845
0.0733827
0.0594304
0.047723
0.0387809
0.0326517
0.0280784
0.024728
0.0223307
0.0207778
0.0200138
0.102746
0.100877
0.0969951
0.0908251
0.0820458
0.0705615
0.0569029
0.0446132
0.0348369
0.0279329
0.0237551
0.0208232
0.0187128
0.0172123
0.0162349
0.0157507
0.0845324
0.0827788
0.0791588
0.0734724
0.0655301
0.0553874
0.0436974
0.0333054
0.0252577
0.0198397
0.0168398
0.0149137
0.0136302
0.012758
0.0122006
0.0119259
0.0678839
0.066306
0.0630751
0.0580753
0.0512456
0.0427678
0.033356
0.0249502
0.018465
0.0141518
0.0117963
0.0104285
0.00961864
0.00912466
0.00883094
0.0086913
0.0528554
0.0515088
0.0487767
0.0446158
0.0390584
0.0323492
0.0251271
0.0186261
0.0135605
0.0101466
0.00821936
0.00716307
0.00660101
0.00630588
0.00615446
0.00608938
0.0393392
0.0382662
0.0361078
0.0328683
0.0286262
0.023622
0.0183503
0.0135718
0.00979259
0.00718472
0.00564358
0.00480667
0.00438502
0.0041892
0.00410566
0.00407582
0.0271045
0.0263296
0.0247821
0.0224865
0.0195262
0.0160933
0.0125263
0.00927572
0.00666747
0.0048243
0.00369004
0.00306429
0.00275194
0.00261498
0.00256363
0.00254862
0.0158324
0.0153662
0.01444
0.0130773
0.0113388
0.00934555
0.00729086
0.00541161
0.00388629
0.00278768
0.00209106
0.00169973
0.00150165
0.00141545
0.00138468
0.00137657
0.00514655
0.00499159
0.00468491
0.0042369
0.00367048
0.00302693
0.00236735
0.00176224
0.00126593
0.000902174
0.000665562
0.000529445
0.00045921
0.000428257
0.000417193
0.000414336
5225.26
5225.04
5224.57
5223.79
5222.63
5220.98
5218.75
5215.87
5212.34
5056.57
0.444204
-0.0796611
-0.0728617
-0.0689643
-0.0651121
-0.0630643
5220.01
5219.85
5219.52
5218.96
5218.13
5216.94
5215.33
5213.26
5210.71
5055.87
0.731645
-0.0771289
-0.0710948
-0.0674844
-0.0637759
-0.0617905
5061.01
5060.95
5060.79
5060.5
5060.07
5059.44
5058.58
5057.45
5056.07
5054.53
0.376532
-0.0751597
-0.0686619
-0.0647234
-0.0612377
-0.0593587
3.89457
8.83673
8.66017
8.34744
7.8249
6.98406
5.65144
3.62619
0.869502
0.391807
-0.0143692
-0.069576
-0.0648732
-0.0608876
-0.057709
-0.0559569
-0.0389591
-0.0394675
-0.0403816
-0.0418636
-0.0440852
-0.047142
-0.0506952
-0.0537835
-0.0560297
-0.0599398
-0.0636199
-0.0623356
-0.0591855
-0.0559882
-0.0532943
-0.0518714
-0.0328922
-0.0333342
-0.0342885
-0.0358784
-0.038204
-0.0411847
-0.0445355
-0.0478065
-0.0508078
-0.0539497
-0.055934
-0.0554256
-0.053194
-0.0506383
-0.0485119
-0.0474176
-0.0268172
-0.0273645
-0.0285489
-0.0305129
-0.0333727
-0.0370796
-0.041309
-0.0450953
-0.0480042
-0.0499412
-0.0505585
-0.0495155
-0.0475729
-0.0453592
-0.043729
-0.0428299
-0.0202796
-0.0209283
-0.0223493
-0.0246952
-0.0280618
-0.0323828
-0.0372409
-0.0413828
-0.0441872
-0.0454779
-0.0453283
-0.0441006
-0.0421865
-0.0404145
-0.0390242
-0.0382675
-0.0141917
-0.0150346
-0.0167396
-0.0193835
-0.0230373
-0.0276008
-0.0325948
-0.0367339
-0.0394238
-0.0405168
-0.0401291
-0.0387709
-0.0371547
-0.0355991
-0.0344089
-0.033769
-0.00979529
-0.010635
-0.012354
-0.0150148
-0.0186361
-0.0230548
-0.0277603
-0.0316484
-0.0341448
-0.0351091
-0.0347055
-0.0335662
-0.032169
-0.0308486
-0.0298467
-0.0293109
-0.00655679
-0.00736362
-0.00900232
-0.0114992
-0.0148198
-0.0187679
-0.0228693
-0.0262765
-0.028497
-0.0294108
-0.0291656
-0.0282894
-0.0271738
-0.0261064
-0.0252933
-0.0248579
-0.00428644
-0.00500915
-0.00646323
-0.00864231
-0.0114786
-0.0147713
-0.0181214
-0.0209289
-0.0228089
-0.0236589
-0.0235948
-0.0229898
-0.0221633
-0.0213504
-0.0207229
-0.0203849
-0.00273269
-0.00332856
-0.00451723
-0.00627442
-0.00852078
-0.0110789
-0.0136427
-0.0158105
-0.0173035
-0.0180406
-0.0181029
-0.0177296
-0.0171637
-0.0165853
-0.0161307
-0.0158835
-0.00165954
-0.00210033
-0.00297379
-0.00425107
-0.00586178
-0.00767022
-0.00946507
-0.0109943
-0.0120733
-0.0126443
-0.0127574
-0.0125543
-0.0122019
-0.0118253
-0.0115238
-0.0113582
-0.000883179
-0.00115266
-0.00168416
-0.00245561
-0.00341944
-0.00449146
-0.00554956
-0.00645579
-0.00710741
-0.00746991
-0.00757127
-0.00747249
-0.00728874
-0.00708171
-0.00691231
-0.0068185
-0.000267685
-0.000358
-0.000536349
-0.000793825
-0.00111301
-0.00146535
-0.00181172
-0.00210974
-0.00232763
-0.00245404
-0.0024966
-0.00247273
-0.00241941
-0.00235631
-0.00230363
-0.00227416
5830.99
5830.85
5830.56
5830.1
5829.4
5828.41
5827.06
5825.28
5823.03
5667.99
0.574595
-0.215235
-0.193484
-0.183527
-0.171832
-0.165966
5827.69
5827.59
5827.39
5827.06
5826.56
5825.84
5824.87
5823.58
5821.94
5667.53
8.78266
-0.208925
-0.189058
-0.179752
-0.168273
-0.162551
5670.69
5670.65
5670.55
5670.38
5670.12
5669.74
5669.22
5668.53
5667.65
5666.61
3.07727
-0.203086
-0.183468
-0.17207
-0.161451
-0.156004
0.551491
16.0721
16.0059
15.8838
15.6307
15.134
14.1966
12.3235
8.60923
2.8495
-0.174501
-0.193213
-0.175345
-0.161962
-0.151974
-0.146805
-0.265945
-0.26414
-0.261032
-0.256481
-0.250363
-0.242914
-0.233611
-0.221333
-0.207473
-0.197652
-0.190051
-0.175655
-0.160813
-0.14872
-0.13996
-0.135425
-0.230767
-0.229398
-0.226835
-0.223075
-0.218007
-0.211001
-0.20192
-0.191969
-0.18204
-0.174647
-0.16667
-0.155382
-0.143618
-0.133618
-0.126385
-0.122634
-0.196254
-0.195345
-0.193564
-0.190935
-0.187411
-0.182776
-0.176883
-0.169757
-0.161777
-0.153679
-0.145104
-0.135531
-0.126071
-0.11801
-0.112224
-0.109213
-0.16115
-0.160568
-0.159438
-0.157789
-0.155599
-0.152757
-0.149065
-0.144249
-0.138358
-0.131682
-0.124345
-0.116543
-0.109025
-0.102682
-0.098127
-0.0957547
-0.129468
-0.129189
-0.128642
-0.127842
-0.126771
-0.125328
-0.123269
-0.120205
-0.116028
-0.110871
-0.104989
-0.0988011
-0.0929432
-0.088012
-0.0844724
-0.0826284
-0.102237
-0.102164
-0.102027
-0.101832
-0.101552
-0.101066
-0.100116
-0.0983003
-0.0954596
-0.0916605
-0.0871629
-0.0824176
-0.0779301
-0.0741519
-0.0714386
-0.070024
-0.079286
-0.0793473
-0.0794737
-0.0796581
-0.0798546
-0.079935
-0.0796627
-0.0786766
-0.0768245
-0.0741402
-0.0708415
-0.0673129
-0.0639543
-0.0611169
-0.0590731
-0.0580062
-0.0600385
-0.0601704
-0.0604313
-0.0608028
-0.061228
-0.0615815
-0.0616652
-0.0611967
-0.0600427
-0.0582214
-0.0558962
-0.0533614
-0.0509219
-0.0488471
-0.0473467
-0.0465615
-0.0437629
-0.0439133
-0.044207
-0.0446201
-0.0450954
-0.045525
-0.0457487
-0.0455765
-0.044893
-0.0437115
-0.0421457
-0.0404014
-0.038702
-0.0372447
-0.0361856
-0.0356298
-0.0297135
-0.0298451
-0.0301
-0.030455
-0.0308623
-0.0312405
-0.0314745
-0.0314465
-0.0310684
-0.0303505
-0.0293655
-0.0282454
-0.0271412
-0.0261865
-0.0254892
-0.0251223
-0.0171909
-0.0172792
-0.0174493
-0.017685
-0.0179547
-0.018208
-0.0183773
-0.0183955
-0.018214
-0.017836
-0.0173018
-0.0166826
-0.0160673
-0.0155317
-0.0151387
-0.0149314
-0.00555363
-0.00558536
-0.00564654
-0.00573099
-0.0058274
-0.00591855
-0.00598248
-0.00599781
-0.00594969
-0.00583849
-0.00567645
-0.00548547
-0.00529395
-0.00512616
-0.00500253
-0.00493715
6439.93
6439.85
6439.7
6439.46
6439.1
6438.57
6437.8
6436.69
6435.06
6280.31
20.0468
-0.369676
-0.320577
-0.299828
-0.276977
-0.266436
6437.7
6437.64
6437.53
6437.36
6437.11
6436.73
6436.18
6435.37
6434.15
6279.92
30.7606
-0.358632
-0.313234
-0.292861
-0.270969
-0.260756
6281.82
6281.8
6281.75
6281.66
6281.52
6281.32
6281.03
6280.6
6279.97
6279.1
21.6574
-0.341934
-0.300911
-0.279914
-0.259682
-0.249918
14.4949
36.8185
36.8004
36.7461
36.6148
36.3277
35.698
34.2375
30.5357
21.3021
-0.305941
-0.324342
-0.288092
-0.262588
-0.244037
-0.234725
-0.515128
-0.511834
-0.504697
-0.493759
-0.479024
-0.460018
-0.435556
-0.406988
-0.375023
-0.344195
-0.322703
-0.292128
-0.262663
-0.239961
-0.224014
-0.215904
-0.433714
-0.430613
-0.424539
-0.415362
-0.402655
-0.38631
-0.366273
-0.342014
-0.317187
-0.297163
-0.279081
-0.255629
-0.232894
-0.214418
-0.201428
-0.194778
-0.366632
-0.364294
-0.359563
-0.352371
-0.342576
-0.330073
-0.314827
-0.296902
-0.277556
-0.258436
-0.239751
-0.220588
-0.202761
-0.188178
-0.17793
-0.172665
-0.299477
-0.297662
-0.29403
-0.288541
-0.281128
-0.271728
-0.260329
-0.247066
-0.232524
-0.217518
-0.202479
-0.187496
-0.17378
-0.16255
-0.154642
-0.150569
-0.240735
-0.239415
-0.236771
-0.232789
-0.227433
-0.22066
-0.212427
-0.202767
-0.191946
-0.180422
-0.168672
-0.157181
-0.146773
-0.138255
-0.132247
-0.129146
-0.19057
-0.189645
-0.187793
-0.185006
-0.18126
-0.176506
-0.170681
-0.163752
-0.155845
-0.147255
-0.138391
-0.129762
-0.121969
-0.11559
-0.111083
-0.108755
-0.148316
-0.147692
-0.146443
-0.144558
-0.142012
-0.138753
-0.134709
-0.129822
-0.124153
-0.117902
-0.11139
-0.105035
-0.0992925
-0.0945851
-0.091253
-0.0895288
-0.112738
-0.112334
-0.111522
-0.11029
-0.108609
-0.106429
-0.103679
-0.100303
-0.0963284
-0.0918917
-0.0872311
-0.0826615
-0.0785195
-0.075116
-0.0727022
-0.0714514
-0.0824551
-0.0822049
-0.0816997
-0.0809259
-0.0798554
-0.0784419
-0.0766278
-0.0743667
-0.0716695
-0.068628
-0.0654095
-0.0622372
-0.0593511
-0.0569727
-0.0552824
-0.0544054
-0.0561348
-0.0559897
-0.0556944
-0.0552364
-0.0545924
-0.0537261
-0.0525949
-0.0511668
-0.0494444
-0.0474865
-0.0454022
-0.0433378
-0.0414531
-0.0398955
-0.0387864
-0.0382102
-0.0325422
-0.0324686
-0.0323179
-0.0320812
-0.0317429
-0.0312804
-0.0306676
-0.0298856
-0.0289351
-0.0278484
-0.0266862
-0.0255306
-0.0244727
-0.0235965
-0.0229716
-0.0226466
-0.0105327
-0.0105119
-0.0104689
-0.0104004
-0.0103008
-0.0101621
-0.00997577
-0.00973549
-0.00944142
-0.00910344
-0.00874055
-0.00837852
-0.00804622
-0.00777045
-0.00757345
-0.00747093
6897.47
6897.38
6897.32
6897.23
6897.09
6896.88
6896.55
6895.98
6894.78
6891.55
77.4308
-0.478778
-0.449441
-0.415945
-0.379071
-0.362074
6896.08
6896
6895.95
6895.88
6895.78
6895.62
6895.37
6894.93
6893.93
6891.04
76.4136
-0.460575
-0.436939
-0.405239
-0.370232
-0.353953
6892.1
6892.01
6891.99
6891.97
6891.93
6891.88
6891.78
6891.57
6891.03
6889.27
64.3754
-0.432722
-0.415763
-0.385565
-0.35374
-0.338504
78.5063
80.7727
80.7915
80.7869
80.7548
80.6299
80.2986
79.3956
76.3347
64.2513
-0.48906
-0.466493
-0.403053
-0.360849
-0.33146
-0.317036
-0.732953
-0.726682
-0.714612
-0.695952
-0.669829
-0.635286
-0.59249
-0.543911
-0.491993
-0.445089
-0.466308
-0.410197
-0.363035
-0.327352
-0.302884
-0.290645
-0.636595
-0.631609
-0.621781
-0.606819
-0.586279
-0.559859
-0.527669
-0.490657
-0.451316
-0.414269
-0.393398
-0.354548
-0.318868
-0.290582
-0.271144
-0.261326
-0.53474
-0.530973
-0.523334
-0.511678
-0.495813
-0.475606
-0.451101
-0.422787
-0.392064
-0.361102
-0.332567
-0.302392
-0.275225
-0.253511
-0.238513
-0.230887
-0.431967
-0.428984
-0.423012
-0.413977
-0.401793
-0.386423
-0.367965
-0.346776
-0.323753
-0.300169
-0.277204
-0.254485
-0.234164
-0.21783
-0.206477
-0.200675
-0.344941
-0.342681
-0.33815
-0.331322
-0.32217
-0.310699
-0.297001
-0.281327
-0.264196
-0.246361
-0.228625
-0.211643
-0.196559
-0.184401
-0.175912
-0.171559
-0.272046
-0.270363
-0.266992
-0.261927
-0.255165
-0.246722
-0.236668
-0.225172
-0.21257
-0.199363
-0.186156
-0.17361
-0.162496
-0.153523
-0.147239
-0.144009
-0.211378
-0.210151
-0.207697
-0.204015
-0.199109
-0.192993
-0.185715
-0.177387
-0.168237
-0.158614
-0.148968
-0.139818
-0.131713
-0.125159
-0.12056
-0.118192
-0.160598
-0.159726
-0.157983
-0.15537
-0.151888
-0.147548
-0.142379
-0.136457
-0.129936
-0.12306
-0.116155
-0.1096
-0.103788
-0.0990822
-0.0957751
-0.09407
-0.117472
-0.116875
-0.11568
-0.113888
-0.111499
-0.108517
-0.104959
-0.100877
-0.0963717
-0.0916124
-0.0868245
-0.082273
-0.0782326
-0.0749563
-0.072651
-0.0714614
-0.0799992
-0.0796152
-0.0788468
-0.0776929
-0.0761521
-0.0742255
-0.0719233
-0.0692767
-0.0663512
-0.0632554
-0.0601363
-0.0571672
-0.0545281
-0.0523856
-0.0508765
-0.0500972
-0.0463947
-0.0461818
-0.0457554
-0.0451145
-0.0442573
-0.0431838
-0.0418989
-0.0404196
-0.0387824
-0.0370479
-0.0352983
-0.033631
-0.0321475
-0.0309421
-0.0300925
-0.0296535
-0.0150271
-0.0149609
-0.0148282
-0.0146286
-0.0143611
-0.0140256
-0.0136234
-0.0131597
-0.012646
-0.0121011
-0.0115511
-0.0110265
-0.0105594
-0.0101795
-0.00991163
-0.00977317
-3.39977
-3.38888
-3.36395
-3.32214
-3.26106
-3.17686
-3.06347
-2.91169
-2.70793
-2.45193
-2.75613
-0.867213
-0.657385
-0.543608
-0.47835
-0.449262
-3.29748
-3.28702
-3.26296
-3.22264
-3.16379
-3.08283
-2.97392
-2.82791
-2.63055
-2.38074
-2.6862
-0.829001
-0.634307
-0.52759
-0.466122
-0.438589
-3.04535
-3.03441
-3.01283
-2.97673
-2.92411
-2.85229
-2.75572
-2.62576
-2.4457
-2.20009
-2.47697
-0.754211
-0.590189
-0.497127
-0.442892
-0.418235
-3.32045
-3.30883
-3.28916
-3.25657
-3.20844
-3.13987
-3.05055
-2.9347
-2.77215
-2.50572
-1.60677
-0.650858
-0.529153
-0.455345
-0.410892
-0.390011
-1.21147
-1.20392
-1.18841
-1.16433
-1.13072
-1.0865
-1.03061
-0.961356
-0.875312
-0.770549
-0.652648
-0.543085
-0.46261
-0.40767
-0.372978
-0.356193
-0.909131
-0.902907
-0.890304
-0.870969
-0.844409
-0.810103
-0.767642
-0.716747
-0.657392