/*--------------------------------*- C++ -*----------------------------------*\
| =========                 |                                                 |
| \\      /  F ield         | OpenFOAM: The Open Source CFD Toolbox           |
|  \\    /   O peration     | Version:  2012                                  |
|   \\  /    A nd           | Website:  www.openfoam.com                      |
|    \\/     M anipulation  |                                                 |
\*---------------------------------------------------------------------------*/
FoamFile
{
    version     2.0;
    format      ascii;
    class       surfaceScalarField;
    location    "0.02";
    object      phi;
}
// * * * * * * * * * * * * * * * * * * * * * * * * * * * * * * * * * * * * * //

dimensions      [0 3 -1 0 0 0 0];
oriented        oriented;


internalField   nonuniform List<scalar> 
52798
(
2.34342e-06
0.000255528
-0.000257871
5.47948e-06
0.000254924
-0.00025806
1.05089e-05
0.0002535
-0.00025853
1.9265e-05
0.000250779
-0.000259535
3.51035e-05
0.000245818
-0.000261656
6.44518e-05
0.000236875
-0.000266223
0.000120027
0.000220804
-0.00027638
0.000227752
0.000192105
-0.000299829
0.000118861
0.000141951
-0.00035504
0.000116411
0.000103927
0.000101642
8.56372e-06
-7.69807e-05
4.49663e-05
4.8673e-05
4.50855e-05
4.85529e-05
-9.44158e-05
0.00013589
1.58189e-07
-4.16324e-05
0.000392377
8.98234e-05
0.000228704
-0.000206705
-0.000204348
-0.000151034
-0.000148817
0.000225835
5.09996e-05
0.000115542
0.000126509
3.19777e-05
6.73474e-05
5.73637e-05
2.28482e-05
4.62974e-05
1.91333e-05
3.82302e-05
1.70714e-06
0.000150059
-0.000317331
0.000150041
0.000135538
0.000135514
3.99105e-06
0.000149844
-0.000317472
0.000149743
0.00013531
0.000135214
7.65771e-06
0.00014928
-0.000317818
0.000149084
0.000134741
0.000134546
1.40615e-05
0.000148192
-0.000318558
0.000147827
0.000133638
0.000133276
2.57227e-05
0.000146193
-0.000320123
0.000145522
0.000131614
0.000130951
4.76307e-05
0.000142547
-0.000323511
0.000141301
0.000127925
0.000126704
9.02298e-05
0.000135838
-0.000331145
0.00013349
0.000121152
0.000118871
0.000176687
0.000123345
-0.000349234
0.000118778
0.000108544
0.000104215
0.00010125
0.000100373
-0.000393511
9.26021e-05
8.59457e-05
7.85918e-05
9.10943e-05
8.51247e-05
7.71662e-05
-2.05196e-05
3.34245e-05
-8.01027e-05
3.98676e-05
4.43645e-05
4.07091e-05
4.35068e-05
-5.74801e-07
-9.07592e-05
0.000132467
5.60973e-07
-4.16936e-05
0.000352068
0.00016256
0.000207619
-0.000188991
-0.000180781
-0.000135272
-0.00012738
0.000205916
9.11738e-05
0.000105977
0.000117006
5.80243e-05
6.28637e-05
5.35247e-05
4.23628e-05
4.39658e-05
3.59782e-05
3.66795e-05
9.70305e-08
-7.3895e-05
5.42665e-05
5.7665e-05
5.42588e-05
5.76663e-05
-2.37997e-07
3.38635e-07
-7.39047e-05
5.42102e-05
5.76167e-05
5.42212e-05
5.76003e-05
-5.53177e-07
6.92531e-07
-7.39291e-05
5.40603e-05
5.74796e-05
5.40832e-05
5.74467e-05
-1.05679e-06
1.29144e-06
-7.39819e-05
5.377e-05
5.71999e-05
5.38055e-05
5.71639e-05
-1.93843e-06
2.35355e-06
-7.40958e-05
5.32345e-05
5.66998e-05
5.32995e-05
5.66402e-05
-3.54406e-06
4.31358e-06
-7.43375e-05
5.22577e-05
5.57973e-05
5.2378e-05
5.56822e-05
-6.54557e-06
8.095e-06
-7.48613e-05
5.04493e-05
5.41255e-05
5.06753e-05
5.38994e-05
-1.24531e-05
1.59201e-05
-7.61383e-05
4.70297e-05
5.09793e-05
4.74696e-05
5.0538e-05
-2.53336e-05
3.57743e-05
-7.99769e-05
4.01766e-05
4.47776e-05
4.11271e-05
4.38282e-05
-6.2009e-05
-6.27304e-05
-9.73156e-05
2.45155e-05
3.11526e-05
2.70981e-05
2.83097e-05
2.44776e-05
3.11422e-05
2.70731e-05
2.82861e-05
-1.64106e-06
-7.78226e-05
0.000119946
2.1755e-06
-4.26581e-05
0.000272573
0.000172992
0.000159703
-0.000142894
-0.00011671
-9.98286e-05
-8.3275e-05
0.000170438
0.000106453
8.68555e-05
0.000100663
7.32895e-05
5.45102e-05
4.69476e-05
5.63476e-05
3.97298e-05
4.90672e-05
3.38583e-05
-0.000102986
1.36194e-08
0.000144186
-4.12138e-05
-0.000102868
-2.04903e-08
4.74613e-09
0.000143992
-4.11083e-05
-0.000102736
-2.1016e-08
1.30439e-08
0.00014385
-4.11066e-05
-0.000102378
6.52997e-08
1.20575e-07
0.000143199
-4.10064e-05
-0.000101953
-2.38239e-08
1.17553e-07
0.000142897
-4.10385e-05
-0.000101219
-6.9894e-08
1.40767e-07
0.000142267
-4.11189e-05
-9.97165e-05
-1.9868e-07
1.78567e-07
0.000140901
-4.11646e-05
-9.69221e-05
-3.83634e-07
3.32757e-07
0.000138275
-4.13024e-05
-9.13998e-05
-7.83314e-07
8.87231e-07
0.000133004
-4.17084e-05
-7.78651e-05
-1.35978e-06
2.26528e-06
0.000119702
-4.27425e-05
-4.003e-05
-4.77177e-05
3.66294e-05
2.6828e-05
2.42903e-05
0.000202787
0.000146506
0.000104605
-7.49051e-05
-7.33949e-05
-6.82961e-05
-6.43099e-05
0.000136267
0.000107477
6.54957e-05
8.33945e-05
8.12059e-05
4.49558e-05
3.95632e-05
6.55519e-05
3.46267e-05
5.83295e-05
3.03008e-05
7.56765e-06
0.000600301
0.000302962
-0.00025629
-0.00025625
-0.000199139
-0.000199152
1.52305e-05
0.000598768
0.000302955
-0.000256009
-0.000255815
-0.000198849
-0.000198713
2.30688e-05
0.000594863
0.000302909
-0.000255096
-0.000254817
-0.000197983
-0.000197714
3.15425e-05
0.000586708
0.000302851
-0.000253307
-0.000252781
-0.000196233
-0.000195711
4.39669e-05
0.000567744
0.000302708
-0.000249723
-0.00024871
-0.00019271
-0.000191733
5.69921e-05
0.000540871
0.000302034
-0.000243638
-0.000241174
-0.000186733
-0.000184386
0.000165378
0.000359319
0.000303652
-0.000222862
-0.000219306
-0.000166314
-0.000162876
0.000274146
0.00030888
0.000287158
-0.000206532
-0.00020165
-0.000150691
-0.000145934
0.000364897
0.000253025
0.000250333
-0.000180236
-0.000170497
-0.000126377
-0.000116999
0.000362428
0.000183449
0.000184827
-0.000126989
-9.51552e-05
-8.33572e-05
-6.03057e-05
0.000243058
0.000203285
0.000112771
-5.37051e-05
-5.24537e-05
-4.70126e-05
-4.35153e-05
0.000165274
0.000151313
7.29767e-05
0.00011005
0.000112983
4.97175e-05
6.77027e-05
8.69738e-05
3.6579e-05
3.23153e-05
7.13863e-05
2.95529e-05
6.4153e-05
2.64915e-05
5.91467e-06
0.000428527
0.000165859
1.1104e-05
0.000427594
0.000165984
1.40306e-05
0.000425605
0.00016633
1.07459e-05
0.000422793
0.000167199
-1.37288e-05
0.000422643
0.000169575
-6.345e-05
0.000416904
0.000173688
9.84033e-05
0.000197466
0.000217511
0.000189772
0.000304117
0.000166418
0.00036002
0.000127546
0.000204041
0.00028279
7.64746e-05
0.000128059
0.000175353
5.19419e-05
8.40769e-05
0.000119244
3.77211e-05
5.2075e-05
8.95546e-05
2.94209e-05
2.50591e-05
7.36156e-05
2.47863e-05
6.65088e-05
2.27032e-05
4.92909e-06
0.00032321
0.000100388
9.12325e-06
0.000322855
0.000100545
1.15833e-05
0.00032221
0.000100935
1.10324e-05
0.000321617
0.000101726
8.69004e-06
0.000321879
0.000103106
0.000320779
0.000104814
6.25726e-05
0.000178621
4.15956e-05
6.73333e-05
0.000136428
3.41638e-05
5.36039e-05
0.000105197
2.7776e-05
3.59659e-05
8.39653e-05
2.32271e-05
1.79108e-05
7.12459e-05
2.04247e-05
6.5318e-05
1.91014e-05
4.55351e-06
0.000253016
6.56407e-05
8.50611e-06
0.00025312
6.57817e-05
1.10695e-05
0.000253524
6.61224e-05
1.12066e-05
0.000254702
6.67774e-05
8.18352e-06
0.0002571
6.7802e-05
0.000260029
6.89341e-05
2.88916e-05
0.000123476
2.62532e-05
3.611e-05
0.000105762
2.34471e-05
3.22756e-05
8.84731e-05
2.05581e-05
2.32028e-05
7.48397e-05
1.81982e-05
1.19739e-05
6.58661e-05
1.66085e-05
6.14726e-05
1.58191e-05
4.65137e-06
0.000203008
4.53568e-05
8.94379e-06
0.000203386
4.54418e-05
1.229e-05
0.000204529
4.56482e-05
1.35476e-05
0.000207402
4.60426e-05
1.06427e-05
0.000213369
4.66358e-05
0.000223409
4.72625e-05
1.35383e-05
9.22708e-05
1.76671e-05
1.91053e-05
8.35394e-05
1.66559e-05
1.86475e-05
7.35501e-05
1.53806e-05
1.42091e-05
6.50652e-05
1.42128e-05
7.57448e-06
5.91404e-05
1.33603e-05
5.61305e-05
1.29166e-05
5.02648e-06
0.000165591
3.23894e-05
1.01246e-05
0.000165897
3.23906e-05
1.52406e-05
0.000167019
3.23942e-05
1.95743e-05
0.000170675
3.23929e-05
1.85427e-05
0.00018208
3.23203e-05
0.000209871
3.20801e-05
5.681e-06
7.43192e-05
1.22705e-05
9.33064e-06
6.78528e-05
1.20369e-05
1.01949e-05
6.11163e-05
1.15695e-05
8.27895e-06
5.59307e-05
1.10503e-05
4.56397e-06
5.22264e-05
1.06288e-05
5.02977e-05
1.03966e-05
5.33967e-06
0.000136803
2.34486e-05
1.13202e-05
0.000136549
2.33663e-05
1.91353e-05
0.000136044
2.31597e-05
3.19655e-05
0.000135137
2.27072e-05
6.00308e-05
0.00013237
2.16444e-05
0.000125092
0.000125545
1.92643e-05
6.94495e-05
4.47157e-05
1.0927e-05
3.4573e-05
2.73941e-05
7.48233e-06
7.16742e-06
2.13856e-05
6.01997e-06
-2.17073e-05
2.28614e-05
6.01325e-06
-5.52274e-06
4.98925e-05
8.24207e-06
2.52957e-06
5.1152e-05
8.64841e-06
4.94104e-06
5.00345e-05
8.67027e-06
4.56792e-06
4.77903e-05
8.51348e-06
2.63806e-06
4.58206e-05
8.33563e-06
4.47096e-05
8.22613e-06
5.07666e-06
0.000114806
1.69207e-05
1.08049e-05
0.000114024
1.67967e-05
1.80994e-05
0.000112247
1.65025e-05
2.84265e-05
0.000108884
1.59261e-05
4.36161e-05
0.00010235
1.48303e-05
6.69097e-05
8.94072e-05
1.28442e-05
4.67416e-05
5.59121e-05
8.9716e-06
2.77983e-05
3.96799e-05
6.6574e-06
1.1296e-05
3.238e-05
5.50782e-06
-2.87241e-06
3.16953e-05
5.33445e-06
-5.77287e-07
4.14713e-05
6.12603e-06
1.78388e-06
4.24001e-05
6.3907e-06
2.84457e-06
4.2479e-05
6.49475e-06
2.63809e-06
4.1529e-05
6.46773e-06
1.5427e-06
4.0514e-05
6.40196e-06
3.98979e-05
6.35442e-06
4.27495e-06
9.86084e-05
1.19221e-05
8.99059e-06
9.75115e-05
1.17971e-05
1.46244e-05
9.51e-05
1.15129e-05
2.16158e-05
9.08949e-05
1.09978e-05
2.98679e-05
8.39663e-05
1.01315e-05
3.75102e-05
7.29853e-05
8.77963e-06
3.0462e-05
5.61153e-05
6.84495e-06
2.03989e-05
4.43277e-05
5.4152e-06
1.06098e-05
3.7574e-05
4.59506e-06
2.74664e-06
3.52274e-05
4.33098e-06
2.06302e-06
3.757e-05
4.58489e-06
1.92252e-06
3.78404e-05
4.70016e-06
1.98255e-06
3.76578e-05
4.76112e-06
1.6595e-06
3.70889e-05
4.76308e-06
9.43673e-07
3.64906e-05
4.7392e-06
3.61227e-05
4.71882e-06
3.16009e-06
8.7539e-05
7.90928e-06
6.55521e-06
8.63074e-05
7.80891e-06
1.03739e-05
8.36933e-05
7.58796e-06
1.46322e-05
7.94275e-05
7.20908e-06
1.88428e-05
7.31331e-05
6.62253e-06
2.14778e-05
6.45524e-05
5.79785e-06
1.87144e-05
5.40931e-05
4.78553e-06
1.3643e-05
4.54431e-05
3.95594e-06
8.23431e-06
3.95563e-05
3.4263e-06
3.81067e-06
3.64544e-05
3.19664e-06
2.37969e-06
3.57813e-05
3.21961e-06
1.74947e-06
3.52187e-05
3.2519e-06
1.43288e-06
3.47005e-05
3.2739e-06
1.07799e-06
3.41685e-05
3.27529e-06
5.87082e-07
3.37164e-05
3.26502e-06
3.34541e-05
3.25566e-06
1.91583e-06
8.11119e-05
4.51122e-06
3.93093e-06
7.98442e-05
4.44802e-06
6.09625e-06
7.7216e-05
4.31191e-06
8.33155e-06
7.31052e-05
4.08701e-06
1.02877e-05
6.74199e-05
3.75699e-06
1.12263e-05
6.02921e-05
3.32162e-06
1.00978e-05
5.23962e-05
2.82536e-06
7.7599e-06
4.53822e-05
2.3989e-06
5.11544e-06
4.00945e-05
2.10627e-06
2.89728e-06
3.67165e-05
1.95602e-06
1.79886e-06
3.49583e-05
1.92146e-06
1.22933e-06
3.38701e-05
1.91809e-06
9.02975e-07
3.31069e-05
1.91994e-06
6.305e-07
3.25234e-05
1.91761e-06
3.30841e-07
3.21039e-05
1.91214e-06
3.18773e-05
1.90762e-06
6.39493e-07
1.44864e-06
1.30016e-06
1.42709e-06
1.9842e-06
1.38145e-06
2.64973e-06
1.30819e-06
3.18369e-06
1.20472e-06
3.39703e-06
1.07403e-06
3.10688e-06
9.30937e-07
2.47492e-06
8.04949e-07
1.73168e-06
7.13809e-07
1.08521e-06
6.61306e-07
6.89482e-07
6.40451e-07
4.59886e-07
6.33239e-07
3.19393e-07
6.30484e-07
2.11661e-07
6.28354e-07
1.07726e-07
6.26269e-07
6.2484e-07
2.14561e-06
0.000187641
-0.000447658
4.98207e-06
0.000187068
-0.000447964
9.43607e-06
0.000185732
-0.000448716
1.69757e-05
0.000183206
-0.000450281
3.00953e-05
0.000178676
-0.000453452
5.30736e-05
0.000170697
-0.000459898
9.3036e-05
0.000156805
-0.000473147
0.000160816
0.000133049
-0.000500659
7.34036e-05
9.37824e-05
-0.000558063
7.15852e-05
6.32875e-05
6.17799e-05
0.000120743
6.14664e-06
-0.000150024
2.30956e-05
2.51905e-05
2.50676e-05
2.31838e-05
5.22927e-05
-2.89909e-05
2.85898e-05
9.17335e-08
-5.19833e-05
0.000251709
6.55229e-05
0.000252919
-9.28862e-05
-9.14781e-05
-7.9387e-05
-7.76958e-05
0.000169377
4.04451e-05
0.000157429
0.000103194
2.72473e-05
0.000106283
4.87204e-05
2.04579e-05
8.03124e-05
1.75638e-05
6.93866e-05
1.55965e-06
0.000100642
-0.000511103
0.000100617
8.93087e-05
8.92856e-05
3.62321e-06
0.000100425
-0.000511332
0.000100333
8.90972e-05
8.90089e-05
6.86408e-06
9.98901e-05
-0.000511889
9.97034e-05
8.85738e-05
8.83955e-05
1.23605e-05
9.88636e-05
-0.000513051
9.85199e-05
8.75721e-05
8.72462e-05
2.19634e-05
9.70067e-05
-0.0005154
9.6389e-05
8.57667e-05
8.51876e-05
3.8921e-05
9.36996e-05
-0.000520182
9.2594e-05
8.25683e-05
8.1548e-05
6.88882e-05
8.78326e-05
-0.000530068
8.58485e-05
7.69334e-05
7.51464e-05
0.000121256
7.74509e-05
-0.00055089
7.38731e-05
6.70524e-05
6.39616e-05
5.98579e-05
5.92493e-05
-0.000595429
5.39628e-05
5.04691e-05
4.59162e-05
5.28245e-05
4.98779e-05
4.47988e-05
0.00012577
-1.43515e-05
2.05789e-05
-0.000154244
1.93226e-05
2.17612e-05
2.11159e-05
1.99049e-05
5.23041e-05
-3.37633e-07
-2.55652e-05
2.51154e-05
3.87589e-07
-5.19042e-05
0.00022566
0.0001086
0.0002297
-8.07431e-05
-7.64171e-05
-6.94009e-05
-6.42579e-05
0.000155682
7.04041e-05
0.000145996
9.62061e-05
4.92747e-05
0.000100312
4.57606e-05
3.80355e-05
7.68333e-05
3.31295e-05
6.6874e-05
0.0001149
8.80542e-08
-0.000144091
3.13727e-05
3.35129e-05
3.34961e-05
3.13634e-05
0.000114921
-2.17556e-07
3.09234e-07
-0.000144113
3.13193e-05
3.34432e-05
3.34342e-05
3.1328e-05
0.00011497
-5.05985e-07
6.2641e-07
-0.000144169
3.11755e-05
3.33087e-05
3.32894e-05
3.11944e-05
0.000115076
-9.60431e-07
1.15168e-06
-0.000144287
3.08972e-05
3.3045e-05
3.30087e-05
3.09324e-05
0.000115298
-1.73605e-06
2.06666e-06
-0.000144529
3.03915e-05
3.25633e-05
3.24978e-05
3.04549e-05
0.000115766
-3.10457e-06
3.69903e-06
-0.000145026
2.94864e-05
3.16984e-05
3.15807e-05
2.95996e-05
0.000116796
-5.56227e-06
6.66354e-06
-0.000146077
2.78659e-05
3.01451e-05
2.99319e-05
2.80692e-05
0.000119222
-1.00475e-05
1.2151e-05
-0.000148406
2.49446e-05
2.73328e-05
2.69393e-05
2.5314e-05
0.00012554
-1.83843e-05
2.25522e-05
-0.000153935
1.96116e-05
2.2161e-05
2.14084e-05
2.02961e-05
0.000146116
-3.32917e-05
-3.39206e-05
-0.000168477
9.92462e-06
1.26291e-05
1.10691e-05
1.12397e-05
9.8821e-06
1.25963e-05
1.1026e-05
1.12071e-05
5.19988e-05
-8.82997e-07
-1.55938e-05
1.46171e-05
1.07622e-06
-5.12153e-05
0.000185044
0.000109445
0.000186579
-5.87794e-05
-5.45114e-05
-5.2083e-05
-4.73914e-05
0.000133886
8.31003e-05
0.000125317
8.47197e-05
6.32888e-05
8.96621e-05
4.07732e-05
5.11416e-05
7.05699e-05
4.54773e-05
6.22835e-05
5.21386e-05
-3.79947e-05
1.23844e-08
3.79126e-05
-5.20689e-05
5.21891e-05
-3.78908e-05
-9.52699e-09
1.11619e-08
3.79894e-05
-5.22894e-05
5.21891e-05
-3.77572e-05
-1.93839e-08
2.145e-08
3.78508e-05
-5.22848e-05
5.21898e-05
-3.74917e-05
-3.27412e-08
3.59044e-08
3.75777e-05
-5.2279e-05
5.21924e-05
-3.70039e-05
-5.28092e-08
5.83369e-08
3.70731e-05
-5.22671e-05
5.21972e-05
-3.61246e-05
-8.69409e-08
9.61334e-08
3.61549e-05
-5.22368e-05
5.22007e-05
-3.45364e-05
-1.46897e-07
1.72418e-07
3.44793e-05
-5.21691e-05
5.22081e-05
-3.16355e-05
-3.08112e-07
3.32915e-07
3.14285e-05
-5.2026e-05
5.22247e-05
-2.61962e-05
-5.66115e-07
6.34773e-07
2.57715e-05
-5.18686e-05
5.19542e-05
-1.55947e-05
-1.1956e-06
1.66994e-06
1.43663e-05
-5.12002e-05
-1.28168e-05
1.19167e-06
-1.84434e-05
1.23024e-05
1.03769e-06
1.67285e-05
0.000159116
0.000110363
0.000144875
-5.18117e-05
-5.38701e-05
-4.81343e-05
-4.64885e-05
0.000114095
9.0558e-05
0.000103059
7.25325e-05
7.25323e-05
7.72743e-05
3.50827e-05
6.03994e-05
6.28183e-05
5.44926e-05
5.63679e-05
7.56333e-06
0.000438831
0.000372274
-0.000136929
-0.000136906
-0.000120947
-0.000120925
1.51896e-05
0.000437355
0.000372221
-0.000136606
-0.000136486
-0.000120638
-0.000120518
2.29843e-05
0.000433688
0.000372166
-0.000135781
-0.000135533
-0.000119837
-0.000119589
3.12917e-05
0.000426008
0.000372257
-0.000134118
-0.000133638
-0.000118224
-0.000117742
4.32869e-05
0.000407969
0.000372537
-0.000130775
-0.000129905
-0.000114997
-0.000114117
5.52509e-05
0.000383842
0.000371833
-0.000125172
-0.000123173
-0.000109645
-0.000107615
0.000147929
0.000230242
0.000373234
-0.000106924
-0.000104179
-9.21822e-05
-8.92168e-05
0.000234226
0.000188713
0.000349823
-9.30162e-05
-8.96915e-05
-7.94751e-05
-7.54934e-05
0.000293221
0.000147161
0.000301773
-7.2974e-05
-6.74563e-05
-6.19257e-05
-5.52416e-05
0.000283593
0.000108723
0.000230544
-4.40572e-05
-3.53318e-05
-3.77525e-05
-2.76711e-05
0.000198859
0.000160607
0.00015972
-3.17392e-05
-3.46286e-05
-2.87772e-05
-2.76783e-05
0.000140179
0.000128452
0.000113567
9.62223e-05
0.000100491
8.3741e-05
6.04328e-05
7.9661e-05
6.52395e-05
2.91785e-05
6.65724e-05
5.46339e-05
6.03462e-05
4.98162e-05
6.04009e-06
0.000355406
0.000243244
1.1474e-05
0.000354492
0.000243412
1.50081e-05
0.000352551
0.000243933
1.31276e-05
0.000349753
0.000245334
-7.83364e-06
0.000349192
0.000249313
-4.60454e-05
0.00034134
0.000254401
9.22984e-05
0.000289363
0.00019306
0.000277723
0.000263083
0.000243556
0.000309242
0.000190111
0.00017713
0.000247511
0.000121682
0.000113059
0.000156991
8.74741e-05
7.54865e-05
0.000109078
6.67064e-05
4.73343e-05
8.3288e-05
5.39459e-05
2.29424e-05
6.92296e-05
4.65208e-05
6.28968e-05
4.30949e-05
5.08728e-06
0.000286287
0.000164418
9.52556e-06
0.000285914
0.000164684
1.23855e-05
0.000285224
0.000165401
1.2363e-05
0.000284504
0.000166998
1.02476e-05
0.000284391
0.000170022
0.000282692
0.000173709
5.57311e-05
0.000161989
7.13861e-05
6.07938e-05
0.000125469
6.06232e-05
4.89717e-05
9.78909e-05
5.07851e-05
3.31306e-05
7.89025e-05
4.34535e-05
1.65774e-05
6.74175e-05
3.87899e-05
6.20307e-05
3.65447e-05
4.69471e-06
0.000232084
0.000115149
8.8529e-06
0.000232134
0.000115404
1.17194e-05
0.000232407
0.000116072
1.21801e-05
0.00023333
0.00011749
9.13323e-06
0.000235295
0.000119945
0.000237701
0.000123059
2.62968e-05
0.000114589
4.73569e-05
3.32017e-05
9.88677e-05
4.31431e-05
2.98931e-05
8.32631e-05
3.84944e-05
2.15995e-05
7.08414e-05
3.45527e-05
1.11801e-05
6.26132e-05
3.1832e-05
5.85685e-05
3.04614e-05
4.7354e-06
0.000189832
8.28737e-05
9.15229e-06
0.000190128
8.30303e-05
1.26777e-05
0.000191074
8.34551e-05
1.41058e-05
0.000193562
8.43822e-05
1.11631e-05
0.000198869
8.60033e-05
0.000207986
8.814e-05
1.25711e-05
8.67718e-05
3.29125e-05
1.78348e-05
7.88807e-05
3.1379e-05
1.74775e-05
6.97253e-05
2.92756e-05
1.3354e-05
6.18989e-05
2.72786e-05
7.13011e-06
5.64083e-05
2.5789e-05
5.36112e-05
2.50039e-05
5.02624e-06
0.000156578
6.06162e-05
1.01286e-05
0.000156802
6.06143e-05
1.52341e-05
0.00015772
6.06428e-05
1.94816e-05
0.000160944
6.07642e-05
1.83418e-05
0.000171353
6.09763e-05
0.000197217
6.1191e-05
5.43592e-06
7.02983e-05
2.33081e-05
8.87014e-06
6.44587e-05
2.30246e-05
9.67978e-06
5.8214e-05
2.22711e-05
7.85948e-06
5.33934e-05
2.13761e-05
4.33317e-06
4.99344e-05
2.06291e-05
4.81291e-05
2.02118e-05
5.25508e-06
0.000130248
4.45234e-05
1.11093e-05
0.000129953
4.43605e-05
1.86615e-05
0.000129359
4.39684e-05
3.08453e-05
0.000128325
4.31418e-05
5.7161e-05
0.000125492
4.11897e-05
0.000118077
0.000118824
3.67407e-05
6.58236e-05
4.29142e-05
2.02662e-05
3.30793e-05
2.65715e-05
1.3655e-05
7.28331e-06
2.08509e-05
1.0965e-05
-2.00333e-05
2.21982e-05
1.11315e-05
-4.95322e-06
4.76763e-05
1.57839e-05
2.58724e-06
4.8876e-05
1.66906e-05
4.79634e-06
4.78549e-05
1.68202e-05
4.39568e-06
4.57448e-05
1.65628e-05
2.53113e-06
4.38885e-05
1.6246e-05
4.284e-05
1.60463e-05
4.95036e-06
0.000109797
3.24214e-05
1.0507e-05
0.000109014
3.21787e-05
1.75131e-05
0.000107245
3.16103e-05
2.73137e-05
0.000103939
3.05116e-05
4.15853e-05
9.76212e-05
2.84291e-05
6.33444e-05
8.52808e-05
2.46283e-05
4.44268e-05
5.37822e-05
1.70211e-05
2.66433e-05
3.8436e-05
1.25763e-05
1.11146e-05
3.14646e-05
1.04228e-05
-2.19085e-06
3.06909e-05
1.01472e-05
-2.46609e-07
3.99206e-05
1.19374e-05
1.89361e-06
4.07026e-05
1.24238e-05
2.82611e-06
4.07442e-05
1.26729e-05
2.57674e-06
3.98253e-05
1.26365e-05
1.49749e-06
3.8853e-05
1.25167e-05
3.82643e-05
1.24275e-05
4.14834e-06
9.45927e-05
2.29782e-05
8.70473e-06
9.35198e-05
2.27349e-05
1.41066e-05
9.11704e-05
2.21854e-05
2.07475e-05
8.70989e-05
2.11965e-05
2.8516e-05
8.04459e-05
1.95382e-05
3.56456e-05
6.99893e-05
1.69415e-05
2.90362e-05
5.40556e-05
1.31808e-05
1.95786e-05
4.28701e-05
1.04387e-05
1.03429e-05
3.64074e-05
8.88784e-06
2.8584e-06
3.40938e-05
8.41252e-06
2.17979e-06
3.62054e-05
8.97866e-06
1.98361e-06
3.63925e-05
9.20639e-06
1.98661e-06
3.61716e-05
9.33066e-06
1.63771e-06
3.56028e-05
9.33448e-06
9.24733e-07
3.50183e-05
9.28681e-06
3.46616e-05
9.24627e-06
3.05888e-06
8.41411e-05
1.53019e-05
6.33383e-06
8.29462e-05
1.51075e-05
9.99476e-06
8.04163e-05
1.46811e-05
1.40459e-05
7.63035e-05
1.39533e-05
1.80196e-05
7.02648e-05
1.28299e-05
2.04831e-05
6.20745e-05
1.1249e-05
1.78888e-05
5.21355e-05
9.2999e-06
1.31137e-05
4.38891e-05
7.71208e-06
8.00314e-06
3.82396e-05
6.70456e-06
3.80295e-06
3.52167e-05
6.27396e-06
2.40851e-06
3.44855e-05
6.33395e-06
1.77105e-06
3.38869e-05
6.39502e-06
1.43455e-06
3.33484e-05
6.43357e-06
1.06838e-06
3.28128e-05
6.43138e-06
5.78421e-07
3.23656e-05
6.4077e-06
3.21081e-05
6.38753e-06
1.85223e-06
7.80518e-05
8.74816e-06
3.79478e-06
7.68256e-05
8.62605e-06
5.87151e-06
7.42876e-05
8.36381e-06
8.0017e-06
7.03281e-05
7.93216e-06
9.85362e-06
6.48693e-05
7.3005e-06
1.07352e-05
5.80468e-05
6.46776e-06
9.67349e-06
5.0505e-05
5.51745e-06
7.46765e-06
4.37915e-05
4.70231e-06
4.96479e-06
3.87052e-05
4.14348e-06
2.85631e-06
3.54247e-05
3.85641e-06
1.79321e-06
3.36799e-05
3.79012e-06
1.2307e-06
3.25877e-05
3.77977e-06
9.00793e-07
3.18197e-05
3.77858e-06
6.25177e-07
3.12363e-05
3.76974e-06
3.26617e-07
3.08202e-05
3.75604e-06
3.05967e-05
3.74571e-06
6.17821e-07
2.81354e-06
1.25454e-06
2.77198e-06
1.91098e-06
2.68419e-06
2.54635e-06
2.54371e-06
3.05344e-06
2.34584e-06
3.25498e-06
2.09625e-06
2.98147e-06
1.82295e-06
2.38393e-06
1.58229e-06
1.67916e-06
1.40776e-06
1.06344e-06
1.30646e-06
6.8168e-07
1.26507e-06
4.56951e-07
1.24923e-06
3.17288e-07
1.2419e-06
2.09613e-07
1.2361e-06
1.06369e-07
1.23089e-06
1.22753e-06
1.83017e-06
0.000123032
-0.00057252
4.19986e-06
0.000122541
-0.000572875
7.80212e-06
0.000121409
-0.000573727
1.36556e-05
0.000119306
-0.000575441
2.33262e-05
0.00011563
-0.000578752
3.91438e-05
0.000109363
-0.000585079
6.4186e-05
9.8891e-05
-0.00059708
0.000101216
8.18612e-05
-0.00061955
4.03657e-05
5.54411e-05
-0.000660392
3.92473e-05
3.46938e-05
3.37974e-05
0.000161502
3.68629e-06
-0.000173175
1.15936e-05
1.26053e-05
1.25166e-05
1.16376e-05
5.19541e-05
-1.36672e-05
1.28529e-05
1.00287e-07
-5.124e-05
0.000155412
4.21437e-05
0.000229858
-4.7207e-05
-4.64447e-05
-4.0945e-05
-3.98986e-05
0.000117388
2.89713e-05
0.000166481
7.66312e-05
2.12532e-05
0.000125786
3.75472e-05
1.6963e-05
0.000102433
1.50397e-05
9.18939e-05
1.32512e-06
6.10164e-05
-0.000619228
6.09946e-05
5.39199e-05
5.39006e-05
3.04101e-06
6.08291e-05
-0.000619489
6.07486e-05
5.37401e-05
5.36651e-05
5.65021e-06
6.03696e-05
-0.000620114
6.02086e-05
5.32971e-05
5.31483e-05
9.89614e-06
5.95024e-05
-0.000621369
5.92126e-05
5.24647e-05
5.21995e-05
1.69303e-05
5.79719e-05
-0.000623795
5.74677e-05
5.10036e-05
5.05484e-05
2.84941e-05
5.53364e-05
-0.000628438
5.4473e-05
4.85055e-05
4.77406e-05
4.69644e-05
5.08656e-05
-0.000637281
4.94092e-05
4.43083e-05
4.30511e-05
7.46978e-05
4.34065e-05
-0.000653968
4.10024e-05
3.73973e-05
3.54e-05
3.16362e-05
3.12243e-05
-0.000684707
2.83315e-05
2.67769e-05
2.42204e-05
2.74864e-05
2.63348e-05
2.34063e-05
0.000165692
-8.45799e-06
1.10241e-05
-0.000176045
9.29259e-06
1.04395e-05
1.00581e-05
9.63215e-06
5.16769e-05
-3.09122e-07
-1.1441e-05
1.05644e-05
4.24758e-07
-5.09159e-05
0.000141025
6.6811e-05
0.000212368
-4.07312e-05
-3.87105e-05
-3.58136e-05
-3.31061e-05
0.000109366
4.99519e-05
0.000156674
7.22616e-05
3.8624e-05
0.000120045
3.55998e-05
3.17535e-05
9.87043e-05
2.85258e-05
8.89875e-05
0.000154712
7.74601e-08
-0.000167559
1.78786e-05
1.90327e-05
1.90126e-05
1.78623e-05
0.000154741
-1.85811e-07
2.61745e-07
-0.000167584
1.78347e-05
1.89639e-05
1.89558e-05
1.78424e-05
0.000154812
-4.27006e-07
5.22451e-07
-0.000167649
1.771e-05
1.8846e-05
1.88288e-05
1.77265e-05
0.000154962
-7.96669e-07
9.4035e-07
-0.000167784
1.74726e-05
1.86182e-05
1.85866e-05
1.75029e-05
0.000155265
-1.40495e-06
1.63848e-06
-0.00016805
1.70515e-05
1.82114e-05
1.81558e-05
1.71045e-05
0.000155876
-2.42811e-06
2.81503e-06
-0.000168572
1.63223e-05
1.7503e-05
1.74067e-05
1.64134e-05
0.000157127
-4.14763e-06
4.77935e-06
-0.000169602
1.50752e-05
1.62843e-05
1.61187e-05
1.52301e-05
0.000159749
-6.98342e-06
7.94683e-06
-0.000171651
1.29723e-05
1.4211e-05
1.39297e-05
1.32312e-05
0.000165381
-1.14059e-05
1.24913e-05
-0.000175722
9.51314e-06
1.07503e-05
1.02863e-05
9.92998e-06
0.000177801
-1.65201e-05
-1.70084e-05
-0.000183275
4.35556e-06
5.47369e-06
4.73986e-06
4.99349e-06
4.32157e-06
5.44689e-06
4.70466e-06
4.96692e-06
5.01595e-05
-8.50129e-07
-6.20129e-06
5.0504e-06
8.38406e-07
-4.89969e-05
0.000123134
6.82562e-05
0.000183069
-3.20476e-05
-3.15599e-05
-2.92275e-05
-2.82345e-05
9.77837e-05
6.07618e-05
0.000139858
6.53213e-05
5.0822e-05
0.000109926
3.235e-05
4.33499e-05
9.19445e-05
3.95397e-05
8.36194e-05
5.23566e-05
-2.05824e-05
1.70532e-08
2.00778e-05
-5.18691e-05
5.22953e-05
-2.04277e-05
-1.24626e-08
1.67188e-08
2.00394e-05
-5.19113e-05
5.22819e-05
-2.031e-05
-2.64816e-08
3.26091e-08
1.99224e-05
-5.19005e-05
5.22756e-05
-2.00796e-05
-4.28229e-08
5.62172e-08
1.96946e-05
-5.1904e-05
5.22597e-05
-1.96659e-05
-6.6142e-08
8.89739e-08
1.92737e-05
-5.18904e-05
5.22242e-05
-1.89419e-05
-1.03876e-07
1.38325e-07
1.85269e-05
-5.18437e-05
5.21444e-05
-1.76881e-05
-1.70113e-07
2.36372e-07
1.72016e-05
-5.17242e-05
5.20041e-05
-1.5539e-05
-3.56489e-07
4.51435e-07
1.49154e-05
-5.14755e-05
5.16264e-05
-1.19108e-05
-7.05641e-07
8.54645e-07
1.10062e-05
-5.08708e-05
4.99379e-05
-6.20523e-06
-1.64924e-06
2.22725e-06
4.51855e-06
-4.88292e-05
-1.45406e-05
3.0184e-06
-8.85124e-06
7.49153e-06
-2.15285e-06
1.50348e-05
0.000116843
7.86784e-05
0.00015615
-3.52947e-05
-3.79988e-05
-3.29907e-05
-3.22572e-05
8.79675e-05
7.10267e-05
0.000121669
5.78597e-05
6.03874e-05
9.78164e-05
2.85426e-05
5.21666e-05
8.33184e-05
4.79154e-05
7.65346e-05
7.48439e-06
0.000308448
0.000367974
-8.22752e-05
-8.22705e-05
-7.35439e-05
-7.35436e-05
1.51466e-05
0.000307206
0.000367804
-8.20173e-05
-8.1921e-05
-7.33085e-05
-7.32055e-05
2.30877e-05
0.000304149
0.000367553
-8.13118e-05
-8.11093e-05
-7.26337e-05
-7.24221e-05
3.15431e-05
0.000297881
0.00036752
-7.99025e-05
-7.95133e-05
-7.12932e-05
-7.08909e-05
4.26303e-05
0.000283613
0.000368054
-7.71356e-05
-7.64402e-05
-6.86845e-05
-6.79565e-05
5.22722e-05
0.000264723
0.000368063
-7.25202e-05
-7.09686e-05
-6.43692e-05
-6.27377e-05
0.000124103
0.00014307
0.000372364
-5.81869e-05
-5.61821e-05
-5.09925e-05
-4.86695e-05
0.000185701
0.00011347
0.000349165
-4.78995e-05
-4.5795e-05
-4.18198e-05
-3.88955e-05
0.000222947
8.59011e-05
0.000302763
-3.49669e-05
-3.20571e-05
-3.06344e-05
-2.64786e-05
0.000213949
6.60766e-05
0.000238193
-1.98895e-05
-1.4856e-05
-1.79481e-05
-1.20343e-05
0.000152242
0.000120741
0.000174797
-1.8279e-05
-2.18141e-05
-1.72065e-05
-1.68109e-05
0.000109888
0.000101903
0.000132695
7.7426e-05
8.3268e-05
0.000103962
4.96751e-05
6.82773e-05
8.51004e-05
2.43034e-05
5.84191e-05
7.37528e-05
5.36026e-05
6.84322e-05
6.19881e-06
0.000275512
0.000269982
1.20257e-05
0.000274694
0.000270096
1.65448e-05
0.000272946
0.000270617
1.69877e-05
0.000270345
0.000272427
3.02402e-06
0.000268689
0.0002782
-2.07142e-05
0.000259343
0.00028352
8.33787e-05
0.000328341
0.000158723
0.000315848
0.000209399
0.000278781
0.000244561
0.000221025
0.000141322
0.000200644
0.000145017
9.18212e-05
0.00013041
0.000108468
6.252e-05
9.30933e-05
8.61821e-05
3.98183e-05
7.2745e-05
7.21797e-05
1.94853e-05
6.14717e-05
6.38009e-05
5.63297e-05
5.9853e-05
5.35361e-06
0.000236266
0.00019831
1.02716e-05
0.000235882
0.000198579
1.40221e-05
0.000235145
0.000199452
1.53134e-05
0.00023425
0.000201801
1.34122e-05
0.000233557
0.000207055
0.000231324
0.00021514
4.60256e-05
0.00013679
8.92145e-05
5.08855e-05
0.000107825
7.83486e-05
4.15697e-05
8.55185e-05
6.76755e-05
2.84311e-05
6.99622e-05
5.93747e-05
1.43213e-05
6.04395e-05
5.39318e-05
5.59345e-05
5.12611e-05
4.95127e-06
0.000199407
0.000147056
9.54178e-06
0.000199358
0.000147337
1.31509e-05
0.00019939
0.000148218
1.45635e-05
0.000199826
0.000150501
1.16985e-05
0.000200957
0.00015541
0.000202399
0.000163683
2.23999e-05
9.98209e-05
6.19257e-05
2.85628e-05
8.69926e-05
5.78122e-05
2.59339e-05
7.4004e-05
5.26376e-05
1.88632e-05
6.35443e-05
4.80411e-05
9.80447e-06
5.65568e-05
4.47733e-05
5.31018e-05
4.30984e-05
4.89102e-06
0.000167377
0.000110012
9.58729e-06
0.000167516
0.000110176
1.36086e-05
0.000168072
0.000110752
1.56767e-05
0.000169766
0.000112375
1.29102e-05
0.000173674
0.000116052
0.000180809
0.00012264
1.10902e-05
7.70258e-05
4.46173e-05
1.57497e-05
7.04694e-05
4.32425e-05
1.54831e-05
6.26963e-05
4.08499e-05
1.18624e-05
5.59843e-05
3.84593e-05
6.34542e-06
5.12406e-05
3.66221e-05
4.8813e-05
3.5638e-05
5.02154e-06
0.000140389
8.2583e-05
1.01592e-05
0.000140453
8.25398e-05
1.53501e-05
0.000140958
8.25655e-05
1.96578e-05
0.000143254
8.29683e-05
1.8494e-05
0.000151539
8.42747e-05
0.000173325
8.71688e-05
5.1202e-06
6.28084e-05
3.24052e-05
8.13119e-06
5.81115e-05
3.23714e-05
8.79507e-06
5.27523e-05
3.15511e-05
7.11747e-06
4.85729e-05
3.0465e-05
3.91936e-06
4.55465e-05
2.95212e-05
4.39598e-05
2.89843e-05
5.08775e-06
0.000118095
6.17289e-05
1.07101e-05
0.00011772
6.14713e-05
1.77956e-05
0.000116948
6.08932e-05
2.87773e-05
0.000115634
5.97798e-05
5.16652e-05
0.000112607
5.72335e-05
0.000104284
0.000106106
5.13406e-05
5.88122e-05
3.98621e-05
2.58755e-05
3.03209e-05
2.54034e-05
1.67428e-05
7.71232e-06
2.01831e-05
1.33904e-05
-1.64802e-05
2.11946e-05
1.41294e-05
-3.72212e-06
4.36101e-05
2.22239e-05
2.78069e-06
4.45696e-05
2.37296e-05
4.56644e-06
4.36941e-05
2.40927e-05
4.09003e-06
4.18125e-05
2.37995e-05
2.33675e-06
4.01556e-05
2.339e-05
3.92184e-05
2.31245e-05
4.70272e-06
0.000100325
4.54892e-05
9.93092e-06
9.954e-05
4.513e-05
1.6394e-05
9.77864e-05
4.43083e-05
2.51937e-05
9.45812e-05
4.27642e-05
3.76824e-05
8.86634e-05
3.98838e-05
5.63614e-05
7.74653e-05
3.45902e-05
3.99678e-05
4.99289e-05
2.33477e-05
2.44718e-05
3.62947e-05
1.71809e-05
1.08363e-05
2.99243e-05
1.4317e-05
-8.03514e-07
2.89503e-05
1.40312e-05
5.09255e-07