/*--------------------------------*- C++ -*----------------------------------*\
| =========                 |                                                 |
| \\      /  F ield         | OpenFOAM: The Open Source CFD Toolbox           |
|  \\    /   O peration     | Version:  2012                                  |
|   \\  /    A nd           | Website:  www.openfoam.com                      |
|    \\/     M anipulation  |                                                 |
\*---------------------------------------------------------------------------*/
FoamFile
{
    version     2.0;
    format      ascii;
    class       volScalarField;
    location    "0.02";
    object      rAU;
}
// * * * * * * * * * * * * * * * * * * * * * * * * * * * * * * * * * * * * * //

dimensions      [-1 3 1 0 0 0 0];


internalField   nonuniform List<scalar> 
17080
(
2.84328e-06
2.84321e-06
2.84311e-06
2.84294e-06
2.84264e-06
2.84206e-06
2.84095e-06
2.8387e-06
2.83404e-06
2.80604e-06
1.14309e-05
0.0028303
0.00283932
0.00284404
0.00284685
0.00284878
2.83428e-06
2.83425e-06
2.83422e-06
2.83418e-06
2.83409e-06
2.83393e-06
2.83356e-06
2.83267e-06
2.83039e-06
2.80486e-06
1.18495e-05
0.00283003
0.00283906
0.00284373
0.0028465
0.00284837
2.79973e-06
2.79973e-06
2.79978e-06
2.7999e-06
2.80013e-06
2.80054e-06
2.80128e-06
2.80251e-06
2.80403e-06
2.80052e-06
1.38458e-05
0.00283333
0.00284016
0.00284399
0.00284641
0.00284808
1.05191e-05
1.04797e-05
1.04959e-05
1.05304e-05
1.05852e-05
1.06671e-05
1.08105e-05
1.1114e-05
1.17689e-05
1.3849e-05
0.00269839
0.00283757
0.00284169
0.00284452
0.0028465
0.00284792
0.00282465
0.00282451
0.0028244
0.00282439
0.00282457
0.002825
0.00282696
0.00282583
0.00282592
0.00282981
0.00283462
0.00283942
0.00284273
0.00284504
0.00284668
0.00284786
0.00283342
0.00283333
0.00283329
0.00283344
0.0028337
0.00283338
0.0028402
0.00283886
0.0028371
0.00283661
0.00283452
0.00284041
0.00284364
0.00284561
0.00284696
0.0028479
0.00283828
0.0028382
0.00283813
0.00283814
0.00283817
0.00283836
0.00284238
0.0028437
0.00284516
0.0028464
0.00284735
0.00284804
0.00284126
0.00284117
0.00284108
0.00284102
0.00284101
0.0028411
0.00284535
0.00284576
0.00284645
0.00284716
0.00284778
0.00284824
0.00284325
0.00284314
0.00284301
0.00284288
0.00284278
0.00284274
0.00284692
0.00284707
0.0028474
0.00284781
0.00284819
0.00284847
0.00284466
0.00284454
0.00284436
0.00284414
0.00284384
0.00284355
0.00284781
0.00284793
0.00284811
0.00284832
0.00284855
0.00284871
0.00284572
0.00284559
0.00284539
0.00284507
0.00284439
0.00284279
0.00284685
0.00284845
0.00284945
0.0028496
0.00284819
0.00284854
0.00284865
0.00284873
0.00284885
0.00284893
0.00284654
0.00284643
0.00284629
0.00284611
0.00284589
0.00284566
0.00284727
0.00284835
0.00284906
0.0028494
0.00284903
0.00284901
0.00284899
0.00284902
0.00284908
0.00284912
0.00284717
0.0028471
0.00284701
0.00284695
0.00284694
0.00284708
0.0028478
0.00284846
0.00284896
0.00284925
0.00284921
0.0028492
0.0028492
0.00284922
0.00284926
0.00284927
0.00284763
0.0028476
0.00284757
0.00284758
0.00284766
0.00284785
0.00284825
0.00284867
0.002849
0.00284922
0.00284928
0.00284932
0.00284934
0.00284937
0.00284939
0.00284939
0.00284794
0.00284795
0.00284797
0.00284803
0.00284814
0.00284833
0.0028486
0.00284888
0.00284911
0.00284928
0.00284936
0.00284941
0.00284944
0.00284946
0.00284948
0.00284947
0.00284815
0.0028482
0.00284826
0.00284836
0.0028485
0.00284869
0.0028489
0.00284911
0.00284928
0.0028494
0.00284947
0.00284951
0.00284954
0.00284956
0.00284957
0.00284955
2.83789e-06
2.83783e-06
2.83773e-06
2.83756e-06
2.83726e-06
2.83671e-06
2.83569e-06
2.83378e-06
2.83024e-06
2.80033e-06
4.31758e-05
0.00283426
0.00284004
0.00284375
0.00284622
0.00284797
2.83078e-06
2.83075e-06
2.83071e-06
2.83066e-06
2.83057e-06
2.8304e-06
2.83004e-06
2.82929e-06
2.82768e-06
2.79931e-06
4.96665e-05
0.00283449
0.00283994
0.00284352
0.00284594
0.00284763
2.79556e-06
2.79556e-06
2.79561e-06
2.79571e-06
2.7959e-06
2.79623e-06
2.79677e-06
2.7976e-06
2.79863e-06
2.79783e-06
8.38732e-05
0.00283682
0.00284078
0.00284375
0.00284589
0.00284741
3.27687e-05
3.29956e-05
3.3118e-05
3.33576e-05
3.38074e-05
3.46547e-05
3.63093e-05
3.97945e-05
4.85349e-05
8.40379e-05
0.00278851
0.00283871
0.00284176
0.00284419
0.002846
0.00284732
0.00282723
0.00282708
0.00282697
0.00282694
0.0028271
0.00282748
0.00282913
0.00282857
0.00282947
0.00283284
0.00283577
0.00283965
0.00284254
0.00284467
0.00284623
0.00284734
0.0028333
0.0028332
0.00283313
0.00283322
0.00283353
0.0028334
0.00283829
0.00283708
0.00283609
0.0028363
0.00283501
0.00284038
0.00284337
0.00284526
0.00284656
0.00284746
0.00283752
0.00283743
0.00283735
0.00283733
0.00283732
0.00283751
0.00284222
0.00284347
0.00284488
0.00284608
0.00284701
0.00284766
0.00284047
0.00284037
0.00284027
0.00284019
0.00284015
0.00284022
0.00284511
0.00284551
0.00284618
0.00284689
0.00284749
0.00284793
0.00284258
0.00284247
0.00284234
0.0028422
0.00284209
0.00284205
0.0028467
0.00284685
0.00284718
0.00284758
0.00284795
0.00284823
0.00284415
0.00284403
0.00284386
0.00284364
0.00284337
0.00284311
0.00284765
0.00284776
0.00284793
0.00284814
0.00284836
0.00284852
0.00284535
0.00284522
0.00284504
0.00284475
0.00284414
0.00284272
0.00284677
0.00284837
0.00284935
0.00284951
0.00284812
0.00284842
0.00284852
0.0028486
0.00284871
0.00284879
0.00284628
0.00284618
0.00284605
0.00284589
0.00284573
0.00284558
0.0028472
0.00284828
0.00284898
0.00284933
0.00284896
0.00284892
0.00284889
0.00284893
0.00284899
0.00284902
0.002847
0.00284694
0.00284687
0.00284682
0.00284684
0.00284701
0.00284775
0.00284842
0.00284891
0.0028492
0.00284915
0.00284914
0.00284914
0.00284917
0.00284921
0.00284921
0.00284755
0.00284752
0.0028475
0.00284753
0.00284762
0.00284783
0.00284823
0.00284865
0.00284898
0.0028492
0.00284926
0.0028493
0.00284932
0.00284935
0.00284937
0.00284937
0.00284794
0.00284795
0.00284797
0.00284804
0.00284816
0.00284835
0.00284862
0.0028489
0.00284913
0.00284929
0.00284937
0.00284942
0.00284945
0.00284948
0.0028495
0.00284948
0.00284823
0.00284828
0.00284833
0.00284843
0.00284857
0.00284875
0.00284897
0.00284917
0.00284933
0.00284945
0.00284952
0.00284956
0.00284959
0.00284961
0.00284962
0.0028496
2.83437e-06
2.83432e-06
2.83423e-06
2.83408e-06
2.83382e-06
2.83337e-06
2.83259e-06
2.83125e-06
2.82907e-06
2.80266e-06
9.06278e-05
0.00283835
0.0028416
0.00284412
0.00284601
0.0028474
2.82959e-06
2.82957e-06
2.82953e-06
2.82949e-06
2.8294e-06
2.82925e-06
2.82898e-06
2.82848e-06
2.82759e-06
2.80213e-06
0.000110533
0.00283859
0.00284154
0.00284395
0.00284579
0.00284713
2.79931e-06
2.79931e-06
2.79935e-06
2.79943e-06
2.79958e-06
2.79983e-06
2.80022e-06
2.8008e-06
2.80165e-06
2.80203e-06
0.000207649
0.00283988
0.00284204
0.00284409
0.00284574
0.00284697
6.00829e-05
6.11126e-05
6.14802e-05
6.21956e-05
6.35256e-05
6.60052e-05
7.0811e-05
8.09179e-05
0.000106499
0.000210096
0.00280101
0.00284052
0.00284254
0.00284437
0.00284584
0.00284693
0.00283106
0.00283091
0.00283078
0.00283072
0.00283079
0.00283107
0.00283233
0.00283212
0.00283319
0.00283583
0.00283782
0.00284074
0.00284299
0.00284474
0.00284606
0.002847
0.00283481
0.0028347
0.0028346
0.00283461
0.00283488
0.00283509
0.00283818
0.00283698
0.00283663
0.00283727
0.00283671
0.00284114
0.00284365
0.00284526
0.00284639
0.00284717
0.00283798
0.00283787
0.00283776
0.00283769
0.00283762
0.00283779
0.00284272
0.00284376
0.00284496
0.00284602
0.00284684
0.00284742
0.00284049
0.00284038
0.00284025
0.00284014
0.00284005
0.00284007
0.00284523
0.00284557
0.00284616
0.00284679
0.00284734
0.00284773
0.00284245
0.00284233
0.00284219
0.00284204
0.0028419
0.00284184
0.00284669
0.00284681
0.00284711
0.00284747
0.00284782
0.00284806
0.00284399
0.00284387
0.00284371
0.00284351
0.00284327
0.00284305
0.00284761
0.00284769
0.00284785
0.00284804
0.00284825
0.00284839
0.00284521
0.0028451
0.00284493
0.00284469
0.00284421
0.00284306
0.0028469
0.0028484
0.00284929
0.00284945
0.00284815
0.00284837
0.00284844
0.00284851
0.00284862
0.00284869
0.00284618
0.0028461
0.00284599
0.00284587
0.00284577
0.00284572
0.00284726
0.00284827
0.00284892
0.00284927
0.00284892
0.00284886
0.00284883
0.00284886
0.00284892
0.00284895
0.00284695
0.0028469
0.00284685
0.00284683
0.00284687
0.00284708
0.00284778
0.00284841
0.00284887
0.00284914
0.0028491
0.0028491
0.0028491
0.00284913
0.00284917
0.00284918
0.00284755
0.00284754
0.00284753
0.00284756
0.00284766
0.00284788
0.00284827
0.00284866
0.00284898
0.00284919
0.00284925
0.00284929
0.00284931
0.00284934
0.00284937
0.00284936
0.00284801
0.00284802
0.00284805
0.00284811
0.00284823
0.00284842
0.00284868
0.00284894
0.00284916
0.00284931
0.0028494
0.00284944
0.00284948
0.0028495
0.00284952
0.00284951
0.00284836
0.00284841
0.00284846
0.00284855
0.00284868
0.00284886
0.00284905
0.00284924
0.0028494
0.0028495
0.00284957
0.00284961
0.00284964
0.00284966
0.00284968
0.00284966
2.83219e-06
2.83214e-06
2.83207e-06
2.83195e-06
2.83175e-06
2.83142e-06
2.83089e-06
2.83004e-06
2.8288e-06
2.80473e-06
0.00017576
0.00284145
0.00284317
0.00284474
0.00284606
0.00284707
2.82921e-06
2.82918e-06
2.82916e-06
2.82912e-06
2.82905e-06
2.82894e-06
2.82876e-06
2.82846e-06
2.82801e-06
2.80448e-06
0.000225699
0.00284162
0.00284312
0.00284461
0.00284589
0.00284687
2.80249e-06
2.8025e-06
2.80252e-06
2.80258e-06
2.80269e-06
2.80287e-06
2.80315e-06
2.80356e-06
2.80416e-06
2.80462e-06
0.00044495
0.00284216
0.00284333
0.00284466
0.00284584
0.00284676
0.000104026
0.000107528
0.00010846
0.000110258
0.000113542
0.000119578
0.000131099
0.000155022
0.000215085
0.000450835
0.00280886
0.00284218
0.00284352
0.00284481
0.00284592
0.00284676
0.00283463
0.00283449
0.00283434
0.00283424
0.0028342
0.00283431
0.00283499
0.00283504
0.00283616
0.00283825
0.0028399
0.00284208
0.00284375
0.00284508
0.00284611
0.00284686
0.00283685
0.00283673
0.0028366
0.0028365
0.00283647
0.00283677
0.00283821
0.00283719
0.00283745
0.00283855
0.00283896
0.00284233
0.00284424
0.00284551
0.00284642
0.00284705
0.00283907
0.00283895
0.00283881
0.00283865
0.00283845
0.00283839
0.00284364
0.00284437
0.00284531
0.00284616
0.00284685
0.00284732
0.00284105
0.00284093
0.00284078
0.0028406
0.00284038
0.00284019
0.00284563
0.00284585
0.00284633
0.00284686
0.00284732
0.00284765
0.00284273
0.00284262
0.00284247
0.00284228
0.00284206
0.00284188
0.00284686
0.00284693
0.00284718
0.00284749
0.00284779
0.002848
0.00284414
0.00284404
0.00284389
0.0028437
0.00284347
0.00284327
0.0028477
0.00284774
0.00284787
0.00284804
0.00284822
0.00284834
0.00284531
0.00284522
0.00284509
0.00284491
0.00284459
0.00284384
0.00284733
0.00284859
0.00284932
0.00284951
0.00284832
0.00284841
0.00284843
0.0028485
0.0028486
0.00284866
0.00284627
0.0028462
0.00284612
0.00284605
0.00284602
0.00284609
0.00284746
0.00284834
0.0028489
0.00284921
0.00284888
0.00284883
0.00284882
0.00284886
0.00284892
0.00284894
0.00284705
0.00284702
0.00284698
0.00284698
0.00284706
0.00284728
0.00284791
0.00284846
0.00284887
0.00284911
0.00284909
0.0028491
0.00284911
0.00284915
0.00284918
0.00284919
0.00284768
0.00284767
0.00284767
0.00284771
0.00284782
0.00284803
0.00284838
0.00284873
0.00284902
0.0028492
0.00284927
0.00284931
0.00284935
0.00284937
0.0028494
0.0028494
0.00284816
0.00284818
0.00284821
0.00284828
0.00284839
0.00284857
0.0028488
0.00284903
0.00284923
0.00284937
0.00284945
0.0028495
0.00284954
0.00284956
0.00284958
0.00284957
0.00284857
0.00284861
0.00284866
0.00284875
0.00284886
0.00284902
0.00284919
0.00284936
0.0028495
0.0028496
0.00284966
0.0028497
0.00284973
0.00284975
0.00284977
0.00284974
2.83087e-06
2.83083e-06
2.83078e-06
2.83069e-06
2.83054e-06
2.83032e-06
2.82997e-06
2.82947e-06
2.82879e-06
2.80597e-06
0.000327346
0.0028436
0.00284443
0.00284535
0.00284621
0.00284689
2.82906e-06
2.82904e-06
2.82902e-06
2.82899e-06
2.82894e-06
2.82887e-06
2.82876e-06
2.82859e-06
2.82837e-06
2.80585e-06
0.000448958
0.00284371
0.00284439
0.00284525
0.00284609
0.00284676
2.80452e-06
2.80452e-06
2.80454e-06
2.80459e-06
2.80466e-06
2.80479e-06
2.80498e-06
2.80525e-06
2.80565e-06
2.80599e-06
0.000904022
0.00284384
0.00284443
0.00284526
0.00284606
0.0028467
0.000176511
0.00018707
0.000189251
0.00019342
0.000200935
0.000214471
0.000239965
0.000292385
0.000424324
0.000908199
0.0028091
0.00284361
0.00284446
0.00284534
0.00284613
0.00284673
0.00283755
0.00283742
0.00283728
0.00283716
0.00283703
0.00283688
0.00283657
0.00283695
0.00283819
0.00284006
0.00284196
0.00284343
0.00284459
0.00284554
0.0028463
0.00284685
0.00283885
0.00283873
0.00283859
0.00283843
0.00283814
0.00283764
0.00283539
0.00283546
0.00283666
0.00283876
0.00284192
0.00284374
0.00284499
0.0028459
0.00284659
0.00284706
0.00284038
0.00284026
0.0028401
0.00283985
0.00283925
0.00283766
0.002841
0.00284218
0.0028433
0.00284473
0.00284443
0.00284506
0.00284579
0.00284644
0.00284698
0.00284735
0.0028419
0.00284178
0.00284162
0.00284136
0.0028408
0.0028394
0.00284327
0.00284472
0.00284576
0.00284678
0.00284604
0.00284623
0.00284662
0.00284704
0.00284742
0.00284768
0.0028433
0.00284319
0.00284304
0.00284282
0.00284238
0.00284131
0.00284484
0.00284624
0.00284715
0.00284791
0.00284715
0.00284717
0.00284736
0.00284762
0.00284786
0.00284803
0.00284454
0.00284445
0.00284432
0.00284416
0.00284387
0.00284321
0.00284615
0.00284731
0.00284805
0.0028486
0.00284791
0.00284789
0.00284798
0.00284813
0.00284828
0.00284838
0.00284561
0.00284554
0.00284545
0.00284536
0.00284529
0.00284531
0.00284685
0.00284781
0.00284843
0.00284879
0.00284848
0.00284845
0.00284848
0.00284856
0.00284865
0.0028487
0.00284652
0.00284647
0.00284642
0.0028464
0.00284645
0.00284667
0.00284748
0.00284814
0.00284862
0.0028489
0.00284883
0.00284884
0.00284886
0.00284892
0.00284897
0.00284899
0.00284728
0.00284725
0.00284724
0.00284726
0.00284736
0.00284759
0.00284805
0.00284849
0.00284883
0.00284905
0.0028491
0.00284913
0.00284917
0.00284921
0.00284925
0.00284925
0.0028479
0.0028479
0.00284791
0.00284796
0.00284807
0.00284826
0.00284854
0.00284884
0.00284908
0.00284925
0.00284933
0.00284938
0.00284942
0.00284945
0.00284948
0.00284947
0.0028484
0.00284843
0.00284845
0.00284851
0.00284862
0.00284878
0.00284897
0.00284917
0.00284934
0.00284947
0.00284955
0.0028496
0.00284964
0.00284966
0.00284968
0.00284967
0.00284884
0.00284888
0.00284893
0.002849
0.0028491
0.00284923
0.00284938
0.00284952
0.00284964
0.00284973
0.00284979
0.00284983
0.00284985
0.00284987
0.00284989
0.00284986
2.83007e-06
2.83004e-06
2.83e-06
2.82994e-06
2.82984e-06
2.82969e-06
2.82948e-06
2.82919e-06
2.82882e-06
2.80665e-06
0.000584607
0.00284504
0.00284535
0.00284585
0.00284639
0.00284682
2.82899e-06
2.82898e-06
2.82896e-06
2.82894e-06
2.82891e-06
2.82886e-06
2.82879e-06
2.8287e-06
2.8286e-06
2.8066e-06
0.000892751
0.00284509
0.00284531
0.00284579
0.00284632
0.00284675
2.80573e-06
2.80573e-06
2.80574e-06
2.80577e-06
2.80583e-06
2.80591e-06
2.80604e-06
2.80622e-06
2.80648e-06
2.80671e-06
0.00158977
0.00284502
0.00284529
0.00284579
0.00284632
0.00284674
0.000295389
0.000323837
0.000328675
0.000337841
0.00035415
0.000383185
0.000437267
0.000549019
0.000837671
0.00161769
0.00281882
0.00284473
0.00284527
0.00284585
0.0028464
0.00284681
0.00283982
0.00283972
0.00283963
0.00283956
0.00283952
0.00283953
0.00283967
0.00284024
0.00284125
0.00284246
0.00284364
0.00284459
0.00284536
0.00284602
0.00284657
0.00284695
0.0028406
0.00284051
0.00284041
0.00284031
0.00284019
0.00284005
0.00283982
0.00284026
0.00284117
0.00284242
0.00284383
0.00284489
0.0028457
0.00284634
0.00284684
0.00284718
0.00284167
0.00284159
0.00284147
0.00284134
0.00284116
0.00284089
0.00284203
0.00284289
0.00284377
0.00284471
0.00284515
0.00284573
0.00284629
0.00284679
0.0028472
0.00284746
0.00284285
0.00284277
0.00284266
0.00284253
0.00284238
0.00284222
0.00284368
0.00284468
0.0028455
0.00284622
0.00284631
0.00284661
0.00284696
0.00284731
0.0028476
0.00284779
0.00284402
0.00284394
0.00284384
0.00284374
0.00284365
0.00284362
0.00284502
0.00284599
0.00284672
0.00284727
0.00284723
0.00284738
0.00284759
0.00284781
0.00284801
0.00284814
0.0028451
0.00284503
0.00284496
0.0028449
0.00284487
0.00284496
0.00284615
0.00284698
0.00284758
0.00284801
0.00284794
0.00284801
0.00284813
0.00284827
0.00284841
0.00284848
0.00284606
0.00284601
0.00284596
0.00284594
0.002846
0.00284621
0.00284699
0.00284765
0.00284814
0.00284846
0.00284846
0.00284852
0.00284859
0.00284868
0.00284877
0.0028488
0.00284689
0.00284687
0.00284684
0.00284686
0.00284696
0.00284719
0.00284769
0.00284816
0.00284854
0.00284878
0.00284885
0.00284891
0.00284897
0.00284903
0.00284908
0.0028491
0.0028476
0.0028476
0.00284759
0.00284764
0.00284774
0.00284795
0.00284827
0.0028486
0.00284888
0.00284907
0.00284917
0.00284923
0.00284928
0.00284932
0.00284936
0.00284936
0.0028482
0.00284821
0.00284823
0.00284828
0.00284838
0.00284855
0.00284877
0.002849
0.0028492
0.00284935
0.00284944
0.0028495
0.00284954
0.00284957
0.0028496
0.00284959
0.00284871
0.00284873
0.00284876
0.00284882
0.00284891
0.00284904
0.0028492
0.00284936
0.0028495
0.00284961
0.00284968
0.00284973
0.00284977
0.00284979
0.00284981
0.00284979
0.00284916
0.0028492
0.00284924
0.0028493
0.00284939
0.00284949
0.00284961
0.00284972
0.00284982
0.00284989
0.00284994
0.00284998
0.00285
0.00285002
0.00285003
0.00285001
2.82958e-06
2.82956e-06
2.82953e-06
2.82948e-06
2.82942e-06
2.82933e-06
2.8292e-06
2.82903e-06
2.82884e-06
2.80701e-06
0.00100524
0.00284588
0.00284592
0.0028462
0.00284654
0.0028468
2.82893e-06
2.82892e-06
2.82891e-06
2.8289e-06
2.82888e-06
2.82885e-06
2.82881e-06
2.82877e-06
2.82873e-06
2.80699e-06
0.00175371
0.00284587
0.00284591
0.00284619
0.00284653
0.0028468
2.80641e-06
2.80642e-06
2.80642e-06
2.80645e-06
2.80648e-06
2.80654e-06
2.80662e-06
2.80675e-06
2.80692e-06
2.80708e-06
0.00221823
0.00284575
0.00284589
0.00284621
0.00284657
0.00284683
0.000474358
0.000549404
0.000559345
0.000577974
0.000611072
0.000669862
0.000778454
0.00100812
0.00163387
0.00225759
0.00282181
0.00284555
0.0028459
0.0028463
0.00284668
0.00284694
0.0028415
0.00284146
0.00284143
0.00284145
0.00284153
0.0028417
0.00284202
0.00284258
0.00284329
0.00284414
0.00284486
0.00284549
0.00284602
0.00284648
0.00284687
0.00284712
0.00284202
0.00284197
0.00284193
0.00284193
0.00284196
0.00284207
0.00284231
0.0028428
0.00284349
0.0028443
0.00284509
0.00284576
0.00284632
0.00284678
0.00284714
0.00284736
0.00284284
0.0028428
0.00284275
0.00284273
0.00284275
0.00284286
0.0028434
0.00284402
0.00284468
0.00284535
0.00284587
0.00284635
0.0028468
0.00284718
0.00284747
0.00284765
0.00284381
0.00284376
0.00284372
0.0028437
0.00284373
0.00284389
0.00284456
0.00284522
0.00284584
0.00284637
0.0028467
0.00284703
0.00284734
0.00284762
0.00284785
0.00284798
0.0028448
0.00284476
0.00284472
0.00284471
0.00284477
0.00284497
0.00284563
0.00284627
0.00284681
0.00284724
0.00284746
0.00284767
0.00284788
0.00284807
0.00284823
0.00284832
0.00284574
0.00284571
0.00284568
0.00284569
0.00284577
0.002846
0.00284658
0.00284713
0.00284759
0.00284793
0.00284808
0.00284822
0.00284836
0.00284849
0.0028486
0.00284865
0.0028466
0.00284658
0.00284656
0.00284659
0.00284669
0.00284692
0.00284737
0.00284781
0.00284818
0.00284845
0.00284858
0.00284868
0.00284878
0.00284886
0.00284894
0.00284896
0.00284735
0.00284735
0.00284735
0.00284739
0.0028475
0.0028477
0.00284802
0.00284836
0.00284865
0.00284886
0.00284898
0.00284906
0.00284913
0.00284919
0.00284924
0.00284925
0.00284801
0.00284802
0.00284802
0.00284807
0.00284818
0.00284834
0.00284858
0.00284882
0.00284904
0.0028492
0.00284931
0.00284938
0.00284944
0.00284948
0.00284951
0.00284951
0.00284857
0.00284859
0.00284861
0.00284866
0.00284875
0.00284888
0.00284905
0.00284923
0.00284939
0.00284951
0.0028496
0.00284966
0.0028497
0.00284973
0.00284976
0.00284974
0.00284906
0.00284909
0.00284912
0.00284917
0.00284924
0.00284935
0.00284947
0.00284959
0.0028497
0.00284979
0.00284986
0.0028499
0.00284994
0.00284996
0.00284997
0.00284995
0.00284952
0.00284956
0.00284959
0.00284964
0.0028497
0.00284978
0.00284987
0.00284996
0.00285003
0.00285009
0.00285013
0.00285016
0.00285018
0.0028502
0.0028502
0.00285018
2.82926e-06
2.82924e-06
2.82922e-06
2.82919e-06
2.82915e-06
2.82909e-06
2.82901e-06
2.82892e-06
2.82882e-06
2.80716e-06
0.00207087
0.00284614
0.00284619
0.0028464
0.00284665
0.00284681
2.82887e-06
2.82886e-06
2.82885e-06
2.82884e-06
2.82883e-06
2.82881e-06
2.82879e-06
2.82877e-06
2.82876e-06
2.80717e-06
0.00263993
0.00284617
0.00284624
0.00284645
0.0028467
0.00284687
2.80676e-06
2.80676e-06
2.80677e-06
2.80678e-06
2.80681e-06
2.80685e-06
2.80691e-06
2.80699e-06
2.80712e-06
2.80725e-06
0.00255925
0.0028461
0.00284627
0.00284653
0.00284679
0.00284696
0.000825004
0.000852403
0.000868703
0.000898618
0.000952311
0.00104676
0.00122298
0.00160435
0.00260063
0.00257692
0.00282629
0.00284603
0.00284636
0.00284668
0.00284696
0.00284712
0.00284257
0.00284258
0.00284262
0.00284272
0.00284289
0.00284315
0.00284351
0.00284399
0.00284452
0.00284511
0.00284562
0.00284612
0.00284655
0.0028469
0.00284718
0.00284734
0.00284307
0.00284308
0.0028431
0.00284317
0.0028433
0.00284352
0.00284385
0.0028443
0.00284483
0.00284541
0.00284595
0.00284645
0.00284687
0.00284721
0.00284747
0.0028476
0.00284383
0.00284383
0.00284384
0.0028439
0.00284402
0.00284423
0.00284461
0.00284508
0.00284558
0.00284609
0.00284654
0.00284695
0.0028473
0.00284759
0.0028478
0.00284791
0.0028447
0.0028447
0.00284471
0.00284476
0.00284488
0.0028451
0.0028455
0.00284597
0.00284643
0.00284685
0.0028472
0.0028475
0.00284777
0.00284799
0.00284816
0.00284823
0.0028456
0.0028456
0.0028456
0.00284565
0.00284577
0.00284599
0.00284638
0.00284681
0.00284722
0.00284756
0.00284782
0.00284804
0.00284823
0.00284839
0.00284851
0.00284855
0.00284644
0.00284644
0.00284645
0.0028465
0.00284661
0.00284683
0.00284718
0.00284755
0.00284789
0.00284817
0.00284837
0.00284852
0.00284866
0.00284877
0.00284885
0.00284887
0.0028472
0.00284721
0.00284722
0.00284727
0.00284739
0.00284758
0.00284787
0.00284817
0.00284845
0.00284867
0.00284882
0.00284894
0.00284903
0.00284911
0.00284916
0.00284917
0.00284788
0.00284789
0.00284791
0.00284796
0.00284806
0.00284823
0.00284845
0.00284869
0.00284891
0.00284908
0.0028492
0.00284929
0.00284936
0.00284941
0.00284945
0.00284944
0.00284847
0.00284849
0.00284851
0.00284856
0.00284865
0.00284878
0.00284895
0.00284913
0.0028493
0.00284943
0.00284953
0.0028496
0.00284965
0.00284968
0.00284971
0.00284969
0.00284899
0.00284902
0.00284904
0.00284908
0.00284916
0.00284926
0.00284939
0.00284952
0.00284964
0.00284974
0.00284981
0.00284986
0.0028499
0.00284993
0.00284994
0.00284992
0.00284946
0.00284949
0.00284951
0.00284955
0.00284961
0.00284969
0.00284978
0.00284987
0.00284995
0.00285002
0.00285007
0.00285011
0.00285013
0.00285015
0.00285016
0.00285013
0.00284991
0.00284994
0.00284997
0.00285
0.00285005
0.0028501
0.00285017
0.00285023
0.00285028
0.00285032
0.00285035
0.00285037
0.00285038
0.00285039
0.00285039
0.00285036
2.82902e-06
2.82901e-06
2.829e-06
2.82898e-06
2.82895e-06
2.82891e-06
2.82886e-06
2.8288e-06
2.82875e-06
2.80715e-06
0.00253984
0.00284592
0.00284625
0.00284648
0.00284671
0.00284681
2.82877e-06
2.82876e-06
2.82876e-06
2.82875e-06
2.82874e-06
2.82873e-06
2.82872e-06
2.82871e-06
2.82872e-06
2.80717e-06
0.00242546
0.002846
0.00284636
0.00284658
0.0028468
0.00284689
2.80686e-06
2.80686e-06
2.80687e-06
2.80688e-06
2.80689e-06
2.80692e-06
2.80696e-06
2.80703e-06
2.80714e-06
2.80728e-06
0.00258812
0.00284612
0.00284651
0.00284672
0.00284692
0.002847
0.0015777
0.00100913
0.00102206
0.00104587
0.00108829
0.00116437
0.0013099
0.00161738
0.00238175
0.00259359
0.00282085
0.00284622
0.00284666
0.00284691
0.00284711
0.00284718
0.00284293
0.002843
0.00284311
0.00284328
0.00284351
0.00284382
0.00284419
0.0028446
0.00284506
0.00284554
0.00284603
0.00284654
0.0028469
0.00284716
0.00284735
0.00284741
0.00284379
0.00284386
0.00284394
0.00284408
0.00284427
0.00284453
0.00284486
0.00284526
0.0028457
0.00284615
0.00284659
0.00284693
0.00284724
0.00284747
0.00284763
0.00284768
0.00284464
0.00284469
0.00284476
0.00284487
0.00284504
0.00284528
0.0028456
0.00284597
0.00284637
0.00284678
0.00284714
0.0028474
0.00284763
0.00284781
0.00284793
0.00284797
0.00284554
0.00284559
0.00284564
0.00284573
0.00284588
0.0028461
0.0028464
0.00284675
0.0028471
0.00284741
0.00284766
0.00284786
0.00284802
0.00284815
0.00284825
0.00284828
0.00284639
0.00284643
0.00284647
0.00284655
0.00284668
0.00284687
0.00284713
0.00284742
0.0028477
0.00284793
0.00284812
0.00284826
0.00284837
0.00284848
0.00284856
0.00284858
0.00284715
0.00284718
0.00284721
0.00284728
0.00284738
0.00284753
0.00284773
0.00284796
0.00284817
0.00284836
0.00284851
0.00284862
0.00284871
0.00284879
0.00284885
0.00284886
0.00284784
0.00284786
0.00284788
0.00284792
0.002848
0.00284811
0.00284826
0.00284842
0.00284859
0.00284874
0.00284886
0.00284894
0.00284901
0.00284907
0.00284912
0.00284913
0.00284844
0.00284846
0.00284847
0.0028485
0.00284855
0.00284862
0.00284873
0.00284884
0.00284897
0.00284908
0.00284918
0.00284924
0.00284929
0.00284934
0.00284938
0.00284937
0.00284897
0.00284899
0.00284899
0.00284901
0.00284904
0.00284908
0.00284915
0.00284923
0.00284931
0.00284939
0.00284946
0.00284951
0.00284955
0.00284958
0.00284961
0.0028496
0.00284944
0.00284946
0.00284946
0.00284946
0.00284947
0.00284949
0.00284953
0.00284958
0.00284963
0.00284968
0.00284973
0.00284976
0.00284979
0.00284981
0.00284983
0.00284981
0.00284987
0.00284989
0.00284988
0.00284987
0.00284987
0.00284987
0.00284988
0.0028499
0.00284992
0.00284995
0.00284997
0.00284999
0.00285001
0.00285002
0.00285004
0.00285001
0.00285026
0.00285028
0.00285028
0.00285027
0.00285026
0.00285025
0.00285025
0.00285024
0.00285024
0.00285025
0.00285026
0.00285026
0.00285027
0.00285027
0.00285028
0.00285025
2.82881e-06
2.82881e-06
2.8288e-06
2.82878e-06
2.82876e-06
2.82873e-06
2.82869e-06
2.82863e-06
2.82858e-06
2.80694e-06
0.00246088
0.00284515
0.00284613
0.00284631
0.00284657
0.00284671
2.8286e-06
2.8286e-06
2.8286e-06
2.82859e-06
2.82858e-06
2.82857e-06
2.82856e-06
2.82854e-06
2.82855e-06
2.80697e-06
0.00107739
0.00284532
0.00284626
0.00284636
0.00284658
0.00284673
2.80673e-06
2.80673e-06
2.80674e-06
2.80674e-06
2.80675e-06
2.80677e-06
2.80679e-06
2.80685e-06
2.80695e-06
2.80713e-06
0.00177814
0.00284584
0.00284641
0.00284642
0.00284663
0.00284678
0.00244765
0.000714835
0.000717087
0.000721237
0.000729935
0.000747557
0.000783102
0.00086493
0.00109122
0.00182668
0.00282038
0.00284586
0.00284626
0.00284647
0.00284673
0.00284691
0.00284202
0.00284205
0.00284213
0.0028423
0.00284257
0.00284293
0.0028434
0.00284401
0.00284476
0.00284548
0.00284574
0.00284598
0.00284632
0.00284664
0.00284693
0.00284711
0.00284327
0.00284333
0.00284344
0.00284363
0.00284392
0.00284428
0.00284474
0.00284525
0.00284577
0.00284606
0.00284611
0.00284631
0.00284662
0.00284693
0.0028472
0.00284736
0.00284387
0.00284394
0.00284404
0.00284422
0.00284447
0.00284479
0.00284517
0.00284558
0.00284597
0.00284628
0.00284649
0.00284674
0.00284702
0.00284729
0.00284753
0.00284766
0.00284472
0.00284479
0.00284488
0.00284504
0.00284526
0.00284553
0.00284584
0.00284616
0.00284647
0.00284675
0.00284697
0.00284721
0.00284745
0.00284768
0.00284787
0.00284798
0.00284563
0.0028457
0.00284578
0.00284592
0.0028461
0.00284632
0.00284657
0.00284682
0.00284706
0.00284728
0.00284748
0.00284768
0.00284788
0.00284806
0.00284822
0.00284829
0.00284649
0.00284656
0.00284663
0.00284675
0.00284689
0.00284707
0.00284726
0.00284745
0.00284763
0.0028478
0.00284797
0.00284813
0.00284828
0.00284843
0.00284854
0.0028486
0.00284727
0.00284733
0.00284738
0.00284747
0.00284758
0.00284772
0.00284787
0.00284802
0.00284815
0.00284828
0.00284841
0.00284853
0.00284865
0.00284876
0.00284885
0.00284888
0.00284795
0.00284799
0.00284803
0.00284809
0.00284818
0.00284828
0.0028484
0.00284851
0.00284861
0.0028487
0.0028488
0.00284889
0.00284898
0.00284906
0.00284913
0.00284915
0.00284853
0.00284857
0.0028486
0.00284864
0.00284869
0.00284877
0.00284885
0.00284893
0.002849
0.00284907
0.00284914
0.00284921
0.00284928
0.00284933
0.00284938
0.00284939
0.00284904
0.00284907
0.00284909
0.00284911
0.00284915
0.00284919
0.00284925
0.0028493
0.00284935
0.0028494
0.00284945
0.00284949
0.00284954
0.00284958
0.00284962
0.00284961
0.00284948
0.00284952
0.00284952
0.00284953
0.00284955
0.00284957
0.0028496
0.00284963
0.00284966
0.00284969
0.00284972
0.00284975
0.00284978
0.00284981
0.00284984
0.00284982
0.00285
0.00285003
0.00285004
0.00285004
0.00285004
0.00285004
0.00285005
0.00285006
0.00285007
0.00285008
0.0028501
0.00285011
0.00285013
0.00285014
0.00285015
0.00285012
2.82862e-06
2.82861e-06
2.8286e-06
2.82859e-06
2.82858e-06
2.82855e-06
2.8285e-06
2.82841e-06
2.82826e-06
2.80634e-06
0.000651811
0.002843
0.00284548
0.00284573
0.00284623
0.00284661
2.82835e-06
2.82835e-06
2.82834e-06
2.82834e-06
2.82833e-06
2.82831e-06
2.82829e-06
2.82824e-06
2.82817e-06
2.80635e-06
0.000463743
0.0028432
0.00284556
0.00284571
0.0028462
0.00284656
2.80622e-06
2.80622e-06
2.80623e-06
2.80623e-06
2.80623e-06
2.80623e-06
2.80624e-06
2.80627e-06
2.80633e-06
2.80656e-06
0.000616217
0.0028441
0.00284586
0.00284577
0.00284622
0.00284657
0.000819196
0.000397483
0.000397671
0.000398199
0.000399456
0.000402208
0.00040836
0.000423339
0.000466582
0.0006234
0.00283147
0.00284454
0.0028454
0.00284579
0.00284629
0.00284667
0.0028395
0.00283947
0.00283948
0.0028396
0.0028398
0.00284012
0.00284061
0.00284126
0.0028422
0.00284343
0.00284428
0.00284468
0.0028454
0.00284598
0.00284649
0.00284685
0.00284189
0.0028419
0.00284197
0.00284212
0.00284237
0.00284273
0.00284323
0.00284385
0.00284457
0.00284514
0.00284501
0.00284529
0.00284582
0.00284635
0.0028468
0.00284711
0.00284259
0.0028426
0.00284267
0.00284281
0.00284302
0.00284333
0.00284372
0.00284418
0.0028447
0.00284519
0.0028455
0.00284589
0.00284635
0.00284679
0.00284717
0.00284741
0.00284369
0.00284372
0.00284378
0.00284391
0.0028441
0.00284436
0.00284468
0.00284504
0.00284544
0.00284583
0.00284617
0.00284653
0.0028469
0.00284726
0.00284755
0.00284774
0.00284483
0.00284486
0.00284492
0.00284503
0.00284519
0.0028454
0.00284565
0.00284594
0.00284624
0.00284654
0.00284684
0.00284714