/*--------------------------------*- C++ -*----------------------------------*\
| =========                 |                                                 |
| \\      /  F ield         | OpenFOAM: The Open Source CFD Toolbox           |
|  \\    /   O peration     | Version:  2012                                  |
|   \\  /    A nd           | Website:  www.openfoam.com                      |
|    \\/     M anipulation  |                                                 |
\*---------------------------------------------------------------------------*/
FoamFile
{
    version     2.0;
    format      ascii;
    class       volScalarField;
    location    "0.02";
    object      RDF;
}
// * * * * * * * * * * * * * * * * * * * * * * * * * * * * * * * * * * * * * //

dimensions      [0 1 0 0 0 0 0];


internalField   nonuniform List<scalar> 
17080
(
0
0
0
0
0
0
0
0
0
0
-0.00391543
0
0
0
0
0
0
0
0
0
0
0
0
0
0
0
-0.00405352
0
0
0
0
0
0
0
0
0
0
0
0
0
0
0
-0.00459707
0
0
0
0
0
-0.00357865
-0.00356288
-0.00356946
-0.00358338
-0.00360542
-0.00363759
-0.00369286
-0.00380529
-0.0040282
-0.00459786
-0.0136836
0
0
0
0
0
0
0
0
0
0
0
0
0
0
0
0
0
0
0
0
0
0
0
0
0
0
0
0
0
0
0
0
0
0
0
0
0
0
0
0
0
0
0
0
0
0
0
0
0
0
0
0
0
0
0
0
0
0
0
0
0
0
0
0
0
0
0
0
0
0
0
0
0
0
0
0
0
0
0
0
0
0
0
0
0
0
0
0
0
0
0
0
0
0
0
0
0
0
0
0
0
0
0
0
0
0
0
0
0
0
0
0
0
0
0
0
0
0
0
0
0
0
0
0
0
0
0
0
0
0
0
0
0
0
0
0
0
0
0
0
0
0
0
0
0
0
0
0
0
0
0
0
0
0
0
0
0
0
0
0
0
0
0
0
0
0
0
0
0
0
0
0
0
0
0
0
0
0
0
0
0
0
0
0
0
0
0
0
0
0
0
-0.0068243
0
0
0
0
0
0
0
0
0
0
0
0
0
0
0
-0.00695739
0
0
0
0
0
0
0
0
0
0
0
0
0
0
0
-0.00731266
0
0
0
0
0
-0.00650511
-0.00651665
-0.00652151
-0.00653092
-0.00654821
-0.00657956
-0.00663656
-0.0067411
-0.00693713
-0.00731369
-0.0144418
0
0
0
0
0
0
0
0
0
0
0
0
0
0
0
0
0
0
0
0
0
0
0
0
0
0
0
0
0
0
0
0
0
0
0
0
0
0
0
0
0
0
0
0
0
0
0
0
0
0
0
0
0
0
0
0
0
0
0
0
0
0
0
0
0
0
0
0
0
0
0
0
0
0
0
0
0
0
0
0
0
0
0
0
0
0
0
0
0
0
0
0
0
0
0
0
0
0
0
0
0
0
0
0
0
0
0
0
0
0
0
0
0
0
0
0
0
0
0
0
0
0
0
0
0
0
0
0
0
0
0
0
0
0
0
0
0
0
0
0
0
0
0
0
0
0
0
0
0
0
0
0
0
0
0
0
0
0
0
0
0
0
0
0
0
0
0
0
0
0
0
0
0
0
0
0
0
0
0
0
0
0
0
0
0
0
0
0
0
0
0
-0.00734976
0
0
0
0
0
0
0
0
0
0
0
0
0
0
0
-0.00743673
0
0
0
0
0
0
0
0
0
0
0
0
0
0
0
-0.00761952
0
0
0
0
0
-0.0071065
-0.00711996
-0.0071242
-0.00713232
-0.00714691
-0.00717253
-0.00721707
-0.00729348
-0.00742197
-0.00762219
-0.014445
0
0
0
0
0
0
0
0
0
0
0
0
0
0
0
0
0
0
0
0
0
0
0
0
0
0
0
0
0
0
0
0
0
0
0
0
0
0
0
0
0
0
0
0
0
0
0
0
0
0
0
0
0
0
0
0
0
0
0
0
0
0
0
0
0
0
0
0
0
0
0
0
0
0
0
0
0
0
0
0
0
0
0
0
0
0
0
0
0
0
0
0
0
0
0
0
0
0
0
0
0
0
0
0
0
0
0
0
0
0
0
0
0
0
0
0
0
0
0
0
0
0
0
0
0
0
0
0
0
0
0
0
0
0
0
0
0
0
0
0
0
0
0
0
0
0
0
0
0
0
0
0
0
0
0
0
0
0
0
0
0
0
0
0
0
0
0
0
0
0
0
0
0
0
0
0
0
0
0
0
0
0
0
0
0
0
0
0
0
0
0
-0.00758122
0
0
0
0
0
0
0
0
0
0
0
0
0
0
0
-0.00763624
0
0
0
0
0
0
0
0
0
0
0
0
0
0
0
-0.00773007
0
0
0
0
0
-0.00741109
-0.00742545
-0.00742892
-0.00743543
-0.0074468
-0.00746605
-0.00749788
-0.00754886
-0.00762683
-0.00773139
-0.0143714
0
0
0
0
0
0
0
0
0
0
0
0
0
0
0
0
0
0
0
0
0
0
0
0
0
0
0
0
0
0
0
0
0
0
0
0
0
0
0
0
0
0
0
0
0
0
0
0
0
0
0
0
0
0
0
0
0
0
0
0
0
0
0
0
0
0
0
0
0
0
0
0
0
0
0
0
0
0
0
0
0
0
0
0
0
0
0
0
0
0
0
0
0
0
0
0
0
0
0
0
0
0
0
0
0
0
0
0
0
0
0
0
0
0
0
0
0
0
0
0
0
0
0
0
0
0
0
0
0
0
0
0
0
0
0
0
0
0
0
0
0
0
0
0
0
0
0
0
0
0
0
0
0
0
0
0
0
0
0
0
0
0
0
0
0
0
0
0
0
0
0
0
0
0
0
0
0
0
0
0
0
0
0
0
0
0
0
0
0
0
0
-0.00769535
0
0
0
0
0
0
0
0
0
0
0
0
0
0
0
-0.0077315
0
0
0
0
0
0
0
0
0
0
0
0
0
0
0
-0.00777994
0
0
0
0
0
-0.00758212
-0.00759648
-0.00759915
-0.00760409
-0.00761247
-0.00762607
-0.00764753
-0.00767989
-0.00772593
-0.00778008
-0.0142293
0
0
0
0
0
0
0
0
0
0
0
0
0
0
0
0
0
0
0
0
0
0
0
0
0
0
0
0
0
0
0
0
0
0
0
0
0
0
0
0
0
0
0
0
0
0
0
0
0
0
0
0
0
0
0
0
0
0
0
0
0
0
0
0
0
0
0
0
0
0
0
0
0
0
0
0
0
0
0
0
0
0
0
0
0
0
0
0
0
0
0
0
0
0
0
0
0
0
0
0
0
0
0
0
0
0
0
0
0
0
0
0
0
0
0
0
0
0
0
0
0
0
0
0
0
0
0
0
0
0
0
0
0
0
0
0
0
0
0
0
0
0
0
0
0
0
0
0
0
0
0
0
0
0
0
0
0
0
0
0
0
0
0
0
0
0
0
0
0
0
0
0
0
0
0
0
0
0
0
0
0
0
0
0
0
0
0
0
0
0
0
0
0
0
0
0
0
0
0
0
0
0
0
0
0
0
0
-0.00775361
0
0
0
0
0
0
0
0
0
0
0
0
0
0
0
-0.00777942
0
0
0
0
0
0
0
0
0
0
0
0
0
0
0
-0.00780267
0
0
0
0
0
-0.00768093
-0.00769415
-0.00769612
-0.0076997
-0.00770562
-0.00771489
-0.00772888
-0.00774905
-0.00777626
-0.0078054
-0.0143165
0
0
0
0
0
0
0
0
0
0
0
0
0
0
0
0
0
0
0
0
0
0
0
0
0
0
0
0
0
0
0
0
0
0
0
0
0
0
0
0
0
0
0
0
0
0
0
0
0
0
0
0
0
0
0
0
0
0
0
0
0
0
0
0
0
0
0
0
0
0
0
0
0
0
0
0
0
0
0
0
0
0
0
0
0
0
0
0
0
0
0
0
0
0
0
0
0
0
0
0
0
0
0
0
0
0
0
0
0
0
0
0
0
0
0
0
0
0
0
0
0
0
0
0
0
0
0
0
0
0
0
0
0
0
0
0
0
0
0
0
0
0
0
0
0
0
0
0
0
0
0
0
0
0
0
0
0
0
0
0
0
0
0
0
0
0
0
0
0
0
0
0
0
0
0
0
0
0
0
0
0
0
0
0
0
0
0
0
0
0
0
0
0
0
0
0
0
0
0
0
0
0
0
0
0
0
0
-0.00778468
0
0
0
0
0
0
0
0
0
0
0
0
0
0
0
-0.00780328
0
0
0
0
0
0
0
0
0
0
0
0
0
0
0
-0.00780868
0
0
0
0
0
-0.00773629
-0.00774901
-0.00775042
-0.00775292
-0.00775699
-0.00776323
-0.00777227
-0.00778497
-0.00780148
-0.00781095
-0.0141775
0
0
0
0
0
0
0
0
0
0
0
0
0
0
0
0
0
0
0
0
0
0
0
0
0
0
0
0
0
0
0
0
0
0
0
0
0
0
0
0
0
0
0
0
0
0
0
0
0
0
0
0
0
0
0
0
0
0
0
0
0
0
0
0
0
0
0
0
0
0
0
0
0
0
0
0
0
0
0
0
0
0
0
0
0
0
0
0
0
0
0
0
0
0
0
0
0
0
0
0
0
0
0
0
0
0
0
0
0
0
0
0
0
0
0
0
0
0
0
0
0
0
0
0
0
0
0
0
0
0
0
0
0
0
0
0
0
0
0
0
0
0
0
0
0
0
0
0
0
0
0
0
0
0
0
0
0
0
0
0
0
0
0
0
0
0
0
0
0
0
0
0
0
0
0
0
0
0
0
0
0
0
0
0
0
0
0
0
0
0
0
0
0
0
0
0
0
0
0
0
0
0
0
0
0
0
0
-0.00780702
0
0
0
0
0
0
0
0
0
0
0
0
0
0
0
-0.0078117
0
0
0
0
0
0
0
0
0
0
0
0
0
0
0
-0.00781317
0
0
0
0
0
-0.00777521
-0.00777703
-0.00777799
-0.00777965
-0.00778238
-0.0077865
-0.00779249
-0.00780094
-0.00781181
-0.00781744
-0.0141795
0
0
0
0
0
0
0
0
0
0
0
0
0
0
0
0
0
0
0
0
0
0
0
0
0
0
0
0
0
0
0
0
0
0
0
0
0
0
0
0
0
0
0
0
0
0
0
0
0
0
0
0
0
0
0
0
0
0
0
0
0
0
0
0
0
0
0
0
0
0
0
0
0
0
0
0
0
0
0
0
0
0
0
0
0
0
0
0
0
0
0
0
0
0
0
0
0
0
0
0
0
0
0
0
0
0
0
0
0
0
0
0
0
0
0
0
0
0
0
0
0
0
0
0
0
0
0
0
0
0
0
0
0
0
0
0
0
0
0
0
0
0
0
0
0
0
0
0
0
0
0
0
0
0
0
0
0
0
0
0
0
0
0
0
0
0
0
0
0
0
0
0
0
0
0
0
0
0
0
0
0
0
0
0
0
0
0
0
0
0
0
0
0
0
0
0
0
0
0
0
0
0
0
0
0
0
0
-0.00781122
0
0
0
0
0
0
0
0
0
0
0
0
0
0
0
-0.00781011
0
0
0
0
0
0
0
0
0
0
0
0
0
0
0
-0.00781428
0
0
0
0
0
-0.00780044
-0.00778489
-0.00778543
-0.0077864
-0.00778803
-0.00779064
-0.00779479
-0.00780111
-0.00780978
-0.00781646
-0.014189
0
0
0
0
0
0
0
0
0
0
0
0
0
0
0
0
0
0
0
0
0
0
0
0
0
0
0
0
0
0
0
0
0
0
0
0
0
0
0
0
0
0
0
0
0
0
0
0
0
0
0
0
0
0
0
0
0
0
0
0
0
0
0
0
0
0
0
0
0
0
0
0
0
0
0
0
0
0
0
0
0
0
0
0
0
0
0
0
0
0
0
0
0
0
0
0
0
0
0
0
0
0
0
0
0
0
0
0
0
0
0
0
0
0
0
0
0
0
0
0
0
0
0
0
0
0
0
0
0
0
0
0
0
0
0
0
0
0
0
0
0
0
0
0
0
0
0
0
0
0
0
0
0
0
0
0
0
0
0
0
0
0
0
0
0
0
0
0
0
0
0
0
0
0
0
0
0
0
0
0
0
0
0
0
0
0
0
0
0
0
0
0
0
0
0
0
0
0
0
0
0
0
0
0
0
0
0
-0.00781052
0
0
0
0
0
0
0
0
0
0
0
0
0
0
0
-0.00778753
0
0
0
0
0
0
0
0
0
0
0
0
0
0
0
-0.00780701
0
0
0
0
0
-0.0078111
-0.00776705
-0.00776724
-0.00776759
-0.00776831
-0.00776971
-0.00777234
-0.0077776
-0.00778802
-0.00781238
-0.0142793
0
0
0
0
0
0
0
0
0
0
0
0
0
0
0
0
0
0
0
0
0
0
0
0
0
0
0
0
0
0
0
0
0
0
0
0
0
0
0
0
0
0
0
0
0
0
0
0
0
0
0
0
0
0
0
0
0
0
0
0
0
0
0
0
0
0
0
0
0
0
0
0
0
0
0
0
0
0
0
0
0
0
0
0
0
0
0
0
0
0
0
0
0
0
0
0
0
0
0
0
0
0
0
0
0
0
0
0
0
0
0
0
0
0
0
0
0
0
0
0
0
0
0
0
0
0
0
0
0
0
0
0
0
0
0
0
0
0
0
0
0
0
0
0
0
0
0
0
0
0
0
0
0
0
0
0
0
0
0
0
0
0
0
0
0
0
0
0
0
0
0
0
0
0
0
0
0
0
0
0
0
0
0
0
0
0
0
0
0
0
0
0
0
0
0
0
0
0
0
0
0
0
0
0
0
0
0
-0.00776117
0
0
0
0
0
0
0
0
0
0
0
0
0
0
0
-0.00773422
0
0
0
0
0
0
0
0
0
0
0
0
0
0
0
-0.00775721
0
0
0
0
0
-0.00777482
-0.00771861
-0.00771867
-0.00771882
-0.00771918
-0.00771994
-0.00772157
-0.00772531
-0.00773474
-0.00775809
-0.0140255
0
0
0
0
0
0
0
0
0
0
0
0
0
0
0
0
0
0
0
0
0
0
0
0
0
0
0
0
0
0
0
0
0
0
0
0
0
0
0
0
0
0
0
0
0
0
0
0
0
0
0
0
0
0
0
0
0
0
0
0
0
0
0
0
0
0
0
0
0
0
0
0
0
0
0
0
0
0
0
0
0
0
0
0
0
0
0
0
0
0
0
0
0
0
0
0
0
0
0
0
0
0
0
0
0
0
0
0
0
0
0
0
0
0
0
0
0
0
0
0
0
0
0
0
0
0
0
0
0
0
0
0
0
0
0
0
0
0
0
0
0
0
0
0
0
0
0
0
0
0
0
0
0
0
0
0
0
0
0
0
0
0
0
0
0
0
0
0
0
0
0
0
0
0
0
0
0
0
0
0
0
0
0
0
0
0
0
0
0
0
0
0
0
0
0
0
0
0
0
0
0
0
0
0
0
0
0
-0.00763178
0
0
0
0
0
0
0
0
0
0
0
0
0
0
0
-0.00763442
0
0
0
0
0
0
0
0
0
0
0
0
0
0
0
-0.00766222
0
0
0
0
0
-0.00762889
-0.00762407
-0.00762405
-0.00762408
-0.00762419
-0.00762453
-0.00762534
-0.00762747
-0.00763454
-0.00766247
-0.0143525
0
0
0
0
0
0
0
0
0
0
0
0
0
0
0
0
0
0
0
0
0
0
0
0
0
0
0
0
0
0
0
0
0
0
0
0
0
0
0
0
0
0
0
0
0
0
0
0
0
0
0
0
0
0
0
0
0
0
0
0
0
0
0
0
0
0
0
0
0
0
0
0
0
0
0
0
0
0
0
0
0
0
0
0
0
0
0
0
0
0
0
0
0
0
0
0
0
0
0
0
0
0
0
0
0
0
0
0
0
0
0
0
0
0
0
0
0
0
0
0
0
0
0
0
0
0
0
0
0
0
0
0
0
0
0
0
0
0
0
0
0
0
0
0
0
0
0
0
0
0
0
0
0
0
0
0
0
0
0
0
0
0
0
0
0
0
0
0
0
0
0
0
0
0
0
0
0
0
0
0
0
0
0
0
0
0
0
0
0
0
0
0
0
0
0
0
0
-0.00957035
-0.00957504
-0.00957241
-0.00957374
-0.00957677
-0.00957652
-0.00957987
-0.0095854
-0.00960032
-0.00971909
-0.0172267
0
0
0
0
0
-0.00958841
-0.00959178
-0.00959185
-0.00959223
-0.00959298
-0.00959415
-0.00959629
-0.00960072
-0.00961252
-0.00969649
-0.017244
0
0
0
0
0
-0.00971216
-0.00968381
-0.00968386
-0.00968408
-0.00968447
-0.00968514
-0.00968634
-0.00968885
-0.00969589
-0.00978575
-0.0173334
0
0
0
0
0
-0.017222
-0.0172384
-0.0172385
-0.0172387
-0.017239
-0.0172395
-0.0172402
-0.0172413
-0.0172433
-0.0173333
-0.0204702
0
0
0
0
0
0
0
0
0
0
0
0
0
0
0
0
0
0
0
0
0
0
0
0
0
0
0
0
0
0
0
0
0
0
0
0
0
0
0
0
0
0
0
0
0
0
0
0
0
0
0
0
0
0
0
0
0
0
0
0
0
0
0
0
0
0
0
0
0
0
0
0
0
0
0
0
0
0
0
0
0
0
0
0
0
0
0
0
0
0
0
0
0
0
0
0
0
0
0
0
0
0
0
0
0
0
0
0
0
0
0
0
0
0
0
0
0
0
0
0
0
0
0
0
0
0
0
0
0
0
0
0
0
0
0
0
0
0
0
0
0
0
0
0
0
0
0
0
0
0
0
0
0
0
0
0
0
0
0
0
0
0
0
0
0
0
0
0
0
0
0
0
0
0
0
0
0
0
0
0
0
0
0
0
0
0
0
0
0
0
0
0
0
0
0
0
0
0
0
0
0
0
0
0
0
0
0
0
0
0
0
0
0
0
0
0
0
0
0
0
0
0
0
0
0
0
0
0
0
0
0
0
0
0
0
0
0
0
0
0
0
0
0
0
0
0
0
0
0
0
0
0
0
0
0
0
0
0
0
0
0
0
0
0
0
0
0
0
0
0
0
0
0
0
0
0
0
0
0
0
0
0
0
0
0
0
0
0
0
0
0
0
0
0
0
0
0
0
0
0
0
0
0
0
0
0
0
0
0
0
0
0
0
0
0
0
0
0
0
0
0
0
0
0
0
0
0
0
0
0
0
0
0
0
0
0
0
0
0
0
0
0
0
0
0
0
0
0
0
0
0
0
0
0
0
0
0
0
0
0
0
0
0
0
0
0
0
0
0
0
0
0
0
0
0
0
0
0
0
0
0
0
0
0
0
0
0
0
0
0
0
0
0
0
0
0
0
0
0
0
0
0
0
0
0
0
0
0
0
0
0
0
0
0
0
0
0
0
0
0
0
0
0
0
0
0
0
0
0
0
0
0
0
0
0
0
0
0
0
0
0
0
0
0
0
0
0
0
0
0
0
0
0
0
0
0
0
0
0
0
0
0
0
0
0
0
0
0
0
0
0
0
0
0
0
0
0
0
0
0
0
0
0
0
0
0
0
0
0
0
0
0
0
0
0
0
0
0
0
0
0
0
0
0
0
0
0
0
0
0
0
0
0
0
0
0
0
0
0
0
0
0
0
0
0
0
0
0
0
0
0
0
0
0
0
0
0
0
0
0
0
0
0
0
0
0
0
0
0
0
0
0
0
0
0
0
0
0
0
0
0
0
0
0
0
0
0
0
0
0
0
0
0
0
0
0
0
0
0
0
0
0
0
0
0
0
0
0
0
0
0
0
0
0
0
0
0
0
0
0
0
0
0
0
0
0
0
0
0
0
0
0
0
0
0
0
0
0
0
0
0
0
0
0
0
0
0
0
0
0
0
0
0
0
0
0
0
0
0
0
0
0
0
0
0
0
0
0
0
0
0
0
0
0
0
0
0
0
0
0
0
0
0
0
0
0
0
0
0
0
0
0
0
0
0
0
0
0
0
0
0
0
0
0
0
0
0
0
0
0
0
0
0
0
0
0
0
0
0
0
0
0
0
0
0
0
0
0
0
0
0
0
0
0
0
0
0
0
0
0
0
0
0
0
0
0
0
0
0
0
0
0
0
0
0
0
0
0
0
0
0
0
0
0
0
0
0
0
0
0
0
0
0
0
0
0
0
0
0
0
0
0
0
0
0
0
0
0
0
0
0
0
0
0
0
0
0
0
0
0
0
0
0
0
0
0
0
0
0
0
0
0
0
0
0
0
0
0
0
0
0
0
0
0
0
0
0
0
0
0
0
0
0
0
0
0
0
0
0
0
0
0
0
0
0
0
0
0
0
0
0
0
0
0
0
0
0
0
0
0
0
0
0
0
0
0
0
0
0
0
0
0
0
0
0
0
0
0
0
0
0
0
0
0
0
0
0
0
0
0
0
0
0
0
0
0
0
0
0
0
0
0
0
0
0
0
0
0
0
0
0
0
0
0
0
0
0
0
0
0
0
0
0
0
0
0
0
0
0
0
0
0
0
0
0
0
0
0
0
0
0
0
0
0
0
0
0
0
0
0
0
0
0
0
0
0
0
0
0
0
0
0
0
0
0
0
0
0
0
0
0
0
0
0
0
0
0
0
0
0
0
0
0
0
0
0.0115421
0
0.0114604
0
0.00903054
0
0.00895865
0
-0.00398762
0
-0.0065275
0
-0.00658094
0
0.0113943
0
0.0110755
0
0.0088977
0
0.00863286
0
-0.00436997
0
-0.00664982
0
-0.00689674
0
0
0.0118771
0.0118755
0
0
0.00936278
0.00936299
0
0.0118795
0.0118725
0
0
0.00936221
0.00935919
0
0.0118727
0.0118671
0
0
0.00935749
0.00935129
0
0.0118632
0.0118522
0
0
0.00934806
0.0093366
0
0.0118444
0.0118254
0
0
0.00933069
0.00930974
0
0.011813
0.0117751
0
0
0.00929895
0.0092606
0
0.0117554
0.011682
0
0
0.00924066
0.00916937
0
0.0116445
0.0114971
0
0
0.00913196
0.00899518
0
0.0114215
0.0110787
0
0
0.00892028
0.00863063
0.0106171
0.0106305
0.00827002
0
0.00828961
0.00829986
0.00975756
0
-0.00699899
0
-0.00707732
0
-0.00939513
0
-0.00357408
0
0
-0.006193
-0.00617755
0
0
-0.0035774
0
0
-0.00617859
-0.00618141
0
0
-0.00357814
0
0
-0.0061835
-0.00618921
0
0
-0.00359248
0
0
-0.00619305
-0.00620374
0
0
-0.00361889
0
0
-0.00621073
-0.0062303
0
0
-0.00367159
0
0
-0.00624302
-0.00627894
0
0
-0.00376478
0
0
-0.0063024
-0.00636929
0
0
-0.00394966
0
0
-0.00641331
-0.0065421
0
0
-0.00434697
0
0
-0.00662848
-0.00689401
0
0
-0.00710935
0
0
-0.0070789
-0.0100533
0
0
0
0
0
-0.0144941
0
0
0
0.0088078
0
0.00874228
0
0.00838992
0
0.00834758
0
-0.00689641
0
-0.00722068
0
-0.00724819
0
0.00868777
0
0.00845689
0
0.00830939
0
0.00815614
0
-0.00716844
0
-0.00729219
0
-0.00742744
0
0
0.00912499
0.00912408
0
0
0.00865343
0.00865575
0
0.00912333
0.00912029
0
0
0.008655
0.00865228
0
0.0091186
0.00911257
0
0
0.00865074
0.00864535
0
0.0091094
0.00909825
0
0
0.00864246
0.0086326
0
0.00909245
0.0090722
0
0
0.00862742
0.00860988
0
0.00906169
0.00902491
0
0
0.00860071
0.00856975
0
0.00900575
0.0089384
0
0
0.00855358
0.00849926
0
0.00890312
0.0087772
0
0
0.00847095
0.00837627
0
0.00870944
0.0084543
0
0
0.00832692
0.00815149
0.00817386
0.00818408
0.0085822
0
0.00796469
0.00797025
0.00995499
0
-0.00856837
0
-0.00751732
0
-0.00942419
0
-0.00651568
0
0
-0.00695472
-0.00694004
0
0
-0.00651948
0
0
-0.00694092
-0.00694346
0
0
-0.00652711
0
0
-0.0069453
-0.00695028
0
0
-0.00654132
0
0
-0.00695374
-0.00696287
0
0
-0.00656716
0
0
-0.00696904
-0.00698534
0
0
-0.00661401
0
0
-0.00699621
-0.00702506
0
0
-0.00669972
0
0
-0.00704423
-0.00709498
0
0
-0.00685933
0
0
-0.00712856
-0.00721718
0
0
-0.00716558
0
0
-0.00727538
-0.00742471
0
0
-0.0102081
0
0
-0.00751764
-0.00972537
0
0
0
0
0
-0.01419
0
0
0
0.00828479
0
0.00824391
0
0.0081067
0
0.00808348
0
-0.00739968
0
-0.00750825
0
-0.00751821
0
0.00821115
0
0.00807612
0
0.00806187
0
0.00796981
0
-0.00754953
0
-0.0075435
0
-0.00761504
0
0
0.00852764
0.00852615
0
0
0.00829344
0.00829767
0
0.00852543
0.00852282
0
0
0.00829697
0.00829475
0
0.00852133
0.00851617
0
0
0.00829345
0.00828906
0
0.00851339
0.00850401
0
0
0.00828668
0.00827885
0
0.00849907
0.00848252
0
0
0.0082747
0.00826124
0
0.00847388
0.00844504
0
0
0.00825419
0.00823149
0
0.00843004
0.00838033
0
0
0.0082197
0.00818236
0
0.00835464
0.00827024
0
0
0.00816321
0.00810373
0
0.00822713
0.00807153
0
0
0.00807407
0.0079665
0.0078876
0.00789318
0.00827749
0
0.00770115
0.00771211
0.00974918
0
-0.00837083
0
-0.00766053
0
-0.00917049
0
-0.00711911
0
0
-0.00732103
-0.00730334
0
0
-0.00712239
0
0
-0.0073041
-0.00730617
0
0
-0.00712896
0
0
-0.00730776
-0.00731175
0
0
-0.00714099
0
0
-0.00731466
-0.00732184
0
0
-0.00716227
0
0
-0.00732686
-0.00733926
0
0
-0.00719934
0
0
-0.00734774
-0.00736874
0
0
-0.00726331
0
0
-0.00738288
-0.0074176
0
0
-0.00737188
0
0
-0.00744055
-0.00749584
0
0
-0.0075478
0
0
-0.00753144
-0.00761269
0
0
-0.0102094
0
0
-0.00766123
-0.00999095
0
0
0
0
0
-0.0143327
0
0
0
0.00805274
0
0.00802822
0
0.00796884
0
0.00795715
0
-0.00761539
0
-0.0076474
0
-0.00764701
0
0.00800992
0
0.00793387
0
0.00794524
0
0.00787774
0
-0.00769564
0
-0.00766097
0
-0.00769853
0
0
0.00822193
0.00822063
0
0
0.00809577
0.00809818
0
0.00821995
0.00821785
0
0
0.00809768
0.00809595
0
0.00821662
0.0082125
0
0
0.00809493
0.00809157
0
0.00821025
0.00820294
0
0
0.00808973
0.00808391
0
0.00819907
0.00818662
0
0
0.00808081
0.00807113
0
0.00818013
0.00815943
0
0
0.00806607
0.00805052
0
0.00814875
0.00811529
0
0
0.00804251
0.00801839
0
0.0080983
0.00804615
0
0
0.00800621
0.00797045
0
0.00802067
0.00793039
0
0
0.00795338
0.00780644
0.00772294
0.00772996
0.00827855
0
0.00767608
0.00793786
0.0100957
0
-0.00835481
0
-0.00772138
0
-0.0095166
0
-0.00742472
0
0
-0.00751956
-0.00750517
0
0
-0.00742738
0
0
-0.00750578
-0.00750735
0
0
-0.00743266
0
0
-0.00750864
-0.00751165
0
0
-0.00744213
0
0
-0.00751394
-0.0075192
0
0
-0.00745827
0
0
-0.00752303
-0.00753183
0
0
-0.00748515
0
0
-0.00753803
-0.00755226
0
0
-0.00752872
0
0
-0.00756203
-0.00758424
0
0
-0.00759672
0
0
-0.00759904
-0.00763182
0
0
-0.00769452
0
0
-0.00765284
-0.00769652
0
0
-0.0103054
0
0
-0.00772218
-0.00978322
0
0
0
0
0
-0.0142584
0
0
0
0.00793813
0
0.00792349
0
0.00789857
0
0.00789331
0
-0.00771984
0
-0.00771833
0
-0.00771206
0
0.00791344
0
0.00784081
0
0.00788696
0
0.00780435
0
-0.00776322
0
-0.00771972
0
-0.00774008
0
0
0.00805127
0.00804875
0
0
0.00798108
0.00798355
0
0.0080483
0.00804668
0
0
0.00798318
0.00798189
0
0.00804572
0.00804261
0
0
0.00798111
0.00797867
0
0.0080409
0.00803554
0
0
0.00797731
0.00797319
0
0.00803268
0.00802388
0
0
0.00797097
0.00796437
0
0.00801928
0.00800529
0
0
0.00796089
0.00795072
0
0.00799813
0.00797678
0
0
0.00794548
0.00793045
0
0.00796609
0.00793491
0
0
0.00792294
0.00790177
0
0.00792036
0.00782409
0
0
0.00789215
0.00779233
0.00793025
0.00795819
0.00835212
0
0.00791991
0.00792974
0.00996136
0
-0.0084214
0
-0.00775251
0
-0.00950447
0
-0.0075959
0
0
-0.00763486
-0.00762145
0
0
-0.00759792
0
0
-0.00762194
-0.00762307
0
0
-0.00760192
0
0
-0.00762408
-0.00762622
0
0
-0.0076089
0
0
-0.00762797
-0.00763161
0
0
-0.00762045
0
0
-0.00763444
-0.00764032
0
0
-0.00763884
0
0
-0.00764469
-0.00765383
0
0
-0.007667
0
0
-0.00766035
-0.00767394
0
0
-0.00770808
0
0
-0.00768321
-0.00770212
0
0
-0.00776264
0
0
-0.00771449
-0.00773848
0
0
-0.0101157
0
0
-0.00775254
-0.00967294
0
0
0
0
0
-0.0140764
0
0
0
0.00787953
0
0.00787022
0
0.00786225
0
0.00786052
0
-0.00777279
0
-0.00775472
0
-0.00774596
0
0.00786489
0
0.00779578
0
0.00785708
0
0.00779379
0
-0.00779653
0
-0.00775029
0
-0.00776159
0
0
0.00795229
0.00795011
0
0
0.00791487
0.00791756
0
0.00794975
0.00794857
0
0
0.00791727
0.00791636
0
0.00794785
0.00794562
0
0
0.00791579
0.00791408
0
0.00794436
0.00794061
0
0
0.0079131
0.00791029
0
0.00793858
0.00793263
0
0
0.00790874
0.00790435
0
0.00792948
0.00792041
0
0
0.00790203
0.0078955
0
0.00791572
0.00790247
0
0
0.00789212
0.0078829
0
0.00789584
0.00787737
0
0
0.00787825
0.00786581
0
0.00786914
0.00778848
0
0
0.00786044
0.00779233
0.00790128
0.00789949
0.00841108
0
0.00791302
0.0079174
0.0100756
0
-0.00846988
0
-0.00776783
0
-0.00954978
0
-0.0076937
0
0
-0.00770219
-0.00768896
0
0
-0.00769517
0
0
-0.00768934
-0.00769013
0
0
-0.00769805
0
0
-0.0076909
-0.00769236
0
0
-0.00770298
0
0
-0.00769366
-0.00769607
0
0
-0.00771086
0
0
-0.00769812
-0.00770191
0
0
-0.00772298
0
0
-0.00770492
-0.00771064
0
0
-0.00774079
0
0
-0.00771497
-0.00772302
0
0
-0.00776545
0
0
-0.00772889
-0.00773964
0
0
-0.00779619
0
0
-0.00774711
-0.00776037
0
0
-0.0103033
0
0
-0.00776795
-0.00945967
0
0
0
0
0
-0.0141984
0
0
0
0.00784872
0
0.00784333
0
0.00784545
0
0.0078403
0
-0.00779924
0
-0.00776927
0
-0.00776436
0
0.00784038
0
0.00781225
0
0.0078367
0
0.00779319
0
-0.00781262
0
-0.00776708
0
-0.00777351
0
0
0.00789629
0.00789394
0
0
0.00787835
0.00788046
0
0.00789368
0.00789284
0
0
0.00788023
0.00787961
0
0.00789232
0.00789077
0
0
0.00787919
0.00787803
0
0.00788987
0.00788732
0
0
0.00787732
0.00787544
0
0.0078859
0.00788196
0
0
0.00787435
0.00787149
0
0.00787984
0.00787406
0
0
0.00786991
0.00786575
0
0.007871
0.00786282
0
0
0.00786352
0.00785777
0
0.00785862
0.00784768
0
0
0.0078548
0.00784637
0
0.00784295
0.00781256
0
0
0.00784076
0.00779033
0.00786716
0.00786865
0.0083546
0
0.00791588
0.00792076
0.0100339
0
-0.00841453
0
-0.00777672
0
-0.0093498
0
-0.00774867
0
0
-0.0077363
-0.00772805
0
0
-0.0077497
0
0
-0.00772834
-0.00772887
0
0
-0.0077517
0
0
-0.0077295
-0.00773045
0
0
-0.00775509
0
0
-0.00773148
-0.00773302
0
0
-0.00776037
0
0
-0.00773456
-0.00773693
0
0
-0.00776819
0
0
-0.0077391
-0.00774253
0
0
-0.00777943
0
0
-0.00774555
-0.00775028
0
0
-0.00779453
0
0
-0.00775417
-0.00776024
0
0
-0.00781168
0
0
-0.00776521
-0.00777259
0
0
-0.0100841
0
0
-0.00777688
-0.00964432
0
0
0
0
0
-0.0138257
0
0
0
0.00783053
0
0.00781363
0
0.00781264
0
0.00782979
0
-0.00780985
0
-0.00776853
0
-0.00777528
0
0.0078113
0
0.00780573
0
0.00782889
0
0.00779148
0
-0.00781553
0
-0.00777704
0
-0.0077806
0
0
0.00786152
0.00786371
0
0
0.00786301
0.00786127
0
0.00786348
0.00786291
0
0
0.00786108
0.00786068
0
0.00786255
0.00786149
0
0
0.00786038
0.00785959
0
0.00786088
0.00785917
0
0
0.0078591
0.00785784
0
0.0078582
0.00785563
0
0
0.00785709
0.0078552
0
0.00785417
0.00785049
0
0
0.0078541
0.00785137
0
0.00784842
0.00784326
0
0
0.00784978
0.00784549
0
0.00784052
0.00783258
0
0
0.00784184
0.00783057
0
0.00781304
0.00780608
0
0
0.00782972
0.00781627
0.00786312
0.00786579
0.00840597
0
0.00791881
0.00792358
0.0100277
0
-0.00846178
0
-0.00778255
0
-0.00941695
0
-0.00777678
0
0
-0.00774518
-0.00775111
0
0
-0.0077775
0
0
-0.00775136
-0.00775176
0
0
-0.00777882
0
0
-0.00775223
-0.00775291
0
0
-0.00778102
0
0
-0.00775369
-0.00775474
0
0
-0.00778443
0
0
-0.00775591
-0.00775744
0
0
-0.00778952
0
0
-0.00775909
-0.00776121
0
0
-0.00779681
0
0
-0.00776345
-0.0077662
0
0
-0.00780675
0
0
-0.00776905
-0.00777243
0
0
-0.00781456
0
0
-0.00777591
-0.00777979
0
0
-0.0101008
0
0
-0.00778272
-0.00962982
0
0
0
0
0
-0.0140341
0
0
0
0.00780215
0
0.00781234
0
0.0078372
0
0.00783605
0
-0.00780725
0
-0.00776364
0
-0.00778587
0
0.00781175
0
0.00780882
0
0.007834
0
0.00778907
0
-0.00781583
0
-0.00778715
0
-0.00778864
0
0
0.00784336
0.00785089
0
0
0.00785698
0.00785493
0
0.00785077
0.00785043
0
0
0.0078546
0.00785443
0
0.0078502
0.00784953
0
0
0.00785421
0.00785367
0
0.00784913
0.00784804
0
0
0.0078533
0.00785245
0
0.0078474
0.00784574
0
0
0.00785188
0.0078506
0
0.00784475
0.00784227
0
0
0.00784978
0.00784795
0
0.00784075
0.00783606
0
0
0.00784679
0.00784425
0
0.00781399
0.00781269
0
0
0.00784263
0.00783753
0
0.00781182
0.00780893
0
0
0.00783459
0.00777864
0.00786926
0.00786899
0.00837412
0
0.00794061
0.00794255
0.00976746
0
-0.00841277
0
-0.00779027
0
-0.00971092
0
-0.00778474
0
0
-0.00774011
-0.00776757
0
0
-0.00778513
0
0
-0.00776781
-0.00776816
0
0
-0.00778587
0
0
-0.00776858
-0.00776912
0
0
-0.00778712
0
0
-0.00776981
-0.00777061
0
0
-0.00778917
0
0
-0.00777165
-0.00777273
0
0
-0.00779244
0
0
-0.00777419
-0.00777555
0
0
-0.0077975
0
0
-0.00777754
-0.00777908
0
0
-0.0078051
0
0
-0.0077816
-0.00778321
0
0
-0.00781541
0
0
-0.00778611
-0.00778761
0
0
-0.0100545
0
0
-0.00779045
-0.0093892
0
0
0
0
0
-0.0140654
0
0
0
0.00780322
0
0.00783822
0
0.00784978
0
0.0078109
0
-0.00778223
0
-0.00775882
0
-0.0078022
0
0.00783603
0
0.00776363
0
0.00781035
0
0.00781127
0
-0.00779485
0
-0.00780416
0
-0.00780554
0
0
0.00780853
0.00785574
0
0
0.00786908
0.00781392
0
0.00785527
0.00785516
0
0
0.00781392
0.00781388
0
0.00785504
0.00785464
0
0
0.00781383
0.00781375
0
0.00785443
0.00785377
0
0
0.00781367
0.00781355
0
0.0078534
0.00785234
0
0
0.0078134
0.00781323
0
0.00785173
0.00785013
0
0
0.00781298
0.0078127
0
0.0078491
0.00784671
0
0
0.00781232
0.00781204
0
0.00784493
0.00783808
0
0
0.00781151
0.00781164
0
0.00783363
0.00776242
0
0
0.00781071
0.007812
0.00793563
0.00795037
0.00884028
0
0.00791799
0.00792331
0.00982994
0
-0.00883029
0
-0.00780585
0
-0.00977031
0
-0.00776698
0
0
-0.00773251
-0.00778766
0
0
-0.00776717
0
0
-0.00778781
-0.00778808
0
0
-0.00776741
0
0
-0.00778836
-0.00778878
0
0
-0.00776789
0
0
-0.00778925
-0.00778986
0
0
-0.00776884
0
0
-0.00779062
-0.00779142
0
0
-0.00777061
0
0
-0.00779258
-0.00779352
0
0
-0.00777412
0
0
-0.00779527
-0.00779633
0
0
-0.00778116
0
0
-0.00779891
-0.00779996
0
0
-0.00779518
0
0
-0.00780334
-0.00780411
0
0
-0.00999785
0
0
-0.00780919
-0.00973234
0
0
0
0
0
-0.0141137
0
0
0
0.00785466
0
0.00781224
0
0.00782719
0
0.00780321
0
-0.00772817
0
-0.00779545
0
-0.00780025
0
0.00781215
0
0.00781543
0
0.00779938
0
0.00779904
0
-0.00774092
0
-0.00780462
0
-0.00780608
0
0
0.00785471
0.00781241
0
0
0.00784001
0.00781064
0
0.0078124
0.0078124
0
0
0.00781067
0.00781055
0
0.0078124
0.0078124
0
0
0.00781052
0.00781034
0
0.0078124
0.00781239
0
0
0.00781025
0.00780999
0
0.00781239
0.00781239
0
0
0.00780979
0.00780946
0
0.00781237
0.00781237
0
0
0.00780901
0.0078086
0
0.00781234
0.00781234
0
0
0.00780767
0.00780722
0
0.00781229
0.00781232
0
0
0.00780519
0.00780475
0
0.00781217
0.00781563
0
0
0.0078
0.0077998
0.00792232
0.00791908
0.0102014
0
0.00781478
0.00781519
0.00947235
0
-0.00980641
0
-0.0078082
0
-0.0100492
0
-0.00771863
0
0
-0.00778231
-0.00779125
0
0
-0.00771868
0
0
-0.00779125
-0.00779139
0
0
-0.00771879
0
0
-0.00779142
-0.00779168
0
0
-0.00771902
0
0
-0.00779177
-0.00779214
0
0
-0.00771947
0
0
-0.00779243
-0.00779291
0
0
-0.0077204
0
0
-0.0077934
-0.00779395
0
0
-0.00772246
0
0
-0.007795
-0.0077956
0
0
-0.00772754
0
0
-0.00779792
-0.00779868
0
0
-0.00774134
0
0
-0.00780406
-0.00780565
0
0
-0.00977952
0
0
-0.00780813
-0.0100512
0
0
0
0
0
-0.0141679
0
0
0
0
0
0
0.00605279
0.00604576
0.00604861
0.00604202
0
0
0
0.00605136
0.00606052
0.00604236
0.00604212
0
0
0
0.00605157
0.00604975
0.00604248
0.00604174
0
0
0
0.00605074
0.00604408
0.00604217
0.00604104
0
0
0
0.00605114
0.00605224
0.00604151
0.00603987
0
0
0
0.00604787
0.00604469
0.00604019
0.00603801
0
0
0
0.00604525
0.00604205
0.00603755
0.00603472
0
0
0
0.00603908
0.00603483
0.00603158
0.00602757
0
0
0
0.00601994
0.00600016
0.00601421
0.00599037
0.00792963
0
0.00788143
0.00593759
0.00239581
0.00592668
0.00238241
0
-0.00762815
0
-0.00546329
0
-0.00546672
0
0
0
0
0.00603209
0.00602699
0.00601078
0.00600167
0
0
0
0.00602732
0.0060271
0.00600197
0.00600178
0
0
0
0.00602742
0.00602669
0.0060021
0.00600149
0
0
0
0.0060271
0.00602598
0.00600195
0.00600102
0
0
0
0.00602644
0.00602486
0.00600156
0.00600028
0
0
0
0.00602522
0.00602315
0.00600076
0.00599908
0
0
0
0.0060229
0.00602028
0.00599906
0.00599684
0
0
0
0.00601786
0.00601431
0.00599492
0.00599151
0
0
0
0.00600316
0.0059805
0.00598167
0.00595897
0.00787849
0
0.0078771
0.00592108
0.00237861
0.00590298
0.00237546
0
-0.00763774
0
-0.00546901
0
-0.0054649
0
0
0.00793788
0.00788323
0.0059444
0.00593495
0.00240184
0.00238848
0
0.0078831
0.00788302
0.00593519
0.00593494
0.00238802
0.00238746
0
0.00788307
0.00788298
0.00593523
0.00593462
0.00238758
0.00238713
0
0.00788304
0.00788292
0.00593503
0.00593412
0.00238731
0.00238668
0
0.00788296
0.00788284
0.00593462
0.0059334
0.00238689
0.00238609
0
0.00788278
0.0078827
0.00593389
0.00593235
0.00238625
0.00238529
0
0.00788239
0.00788243
0.00593255
0.00593069
0.00238521
0.0023842
0
0.00788146
0.00788171
0.00592977
0.00592735
0.0023834
0.00238253
0
0.00787854
0.00787728
0.00592188
0.00590277
0.00237914
0.00237567
0.00788067
0.0078808
0.0102189
0.00586731
0.00235872
0.00235884
0.000955602
0
-0.00940916
0
-0.00547661
0
-0.00597679
0
-0.00762411
0
0
-0.00545917
-0.00546471
0
0
-0.00762418
0
0
-0.00546407
-0.00546398
0
0
-0.00762424
0
0
-0.0054637
-0.00546409
0
0
-0.00762434
0
0
-0.0054637
-0.00546428
0
0
-0.0076245
0
0
-0.00546379
-0.00546452
0
0
-0.00762484
0
0
-0.005464
-0.00546482
0
0
-0.00762557
0
0
-0.00546442
-0.0054651
0
0
-0.00762773
0
0
-0.0054654
-0.00546548
0
0
-0.0076377
0
0
-0.00546803
-0.00546481
0
0
-0.00952302
0
0
-0.00547637
-0.00597666
0
0
0
0
0
-0.0105409
0
0
0
-0.00957758
-0.0095814
-0.0095864
0
0
0
0
-0.00956991
-0.00958611
-0.00958643
0
0
0
0
-0.0095765
-0.00958641
-0.00958652
0
0
0
0
-0.00957831
-0.00958677
-0.0095872
0
0
0
0
-0.00957554
-0.00958734
-0.00958846
0
0
0
0
-0.00957997
-0.00958882
-0.00959038
0
0
0
0
-0.0095838
-0.00959114
-0.0095942
0
0
0
0
-0.00959381
-0.00959599
-0.0096037
0
0
0
0
-0.0096643
-0.00960874
-0.00967277
0
0
0
0
-0.0113308
-0.00969106
-0.0114901
0
0
0
0
0
-0.0172433
0
0
0
0
0
-0.0095921
-0.00965411
-0.00965982
0
0
0
0
-0.00959183
-0.00966179
-0.00966192
0
0
0
0
-0.00959216
-0.00966193
-0.00966218
0
0
0
0
-0.00959281
-0.0096622
-0.00966263
0
0
0
0
-0.00959388
-0.00966271
-0.00966339
0
0
0
0
-0.00959564
-0.00966357
-0.00966469
0
0
0
0
-0.00959915
-0.00966513
-0.00966724
0
0
0
0
-0.00960803
-0.00966841
-0.00967393
0
0
0
0
-0.0096781
-0.00967749
-0.00973452
0
0
0
0
-0.0114956
-0.0097518
-0.0115176
0
0
0
0
0
-0.0172576
0
0
0
0
0
-0.00968072
-0.0113243
-0.0114824
0
0
0
0
-0.00968385
-0.0114876
-0.0114879
0
0
0
0
-0.00968406
-0.011488
-0.0114883
0
0
0
0
-0.00968442
-0.0114884
-0.0114888
0
0
0
0
-0.00968502
-0.011489
-0.0114896
0
0
0
0
-0.00968604
-0.0114898
-0.0114906
0
0
0
0
-0.00968803
-0.0114909
-0.0114921
0
0
0
0
-0.00969338
-0.0114925
-0.0114943
0
0
0
0
-0.00975178
-0.0114949
-0.0115174
0
0
0
0
-0.0115625
-0.0115623
-0.0115192
0
0
0
0
0
-0.0165253
0
0
0
0
0
-0.0172379
0
0
0
0
0
0
-0.0172384
0
0
0
0
0
0
-0.0172386
0
0
0
0
0
0
-0.0172389
0
0
0
0
0
0
-0.0172393
0
0
0
0
0
0
-0.01724
0
0
0
0
0
0
-0.017241
0
0
0
0
0
0
-0.017243
0
0
0
0
0
0
-0.0172573
0
0
0
0
0
0
-0.0165253
0
0
0
0
0
0
0
0
0
0
0
0
0
-0.0210183
-0.0196383
-0.00390645
-0.00544072
-0.00544358
-0.0210113
-0.019646
-0.0212332
-0.0197856
-0.00412908
-0.00558464
-0.0211583
-0.00564987
-0.0198595
-0.0219057
-0.0207087
-0.00484594
-0.00612645
-0.0220468
-0.00635239
-0.0206372
-0.0206555
-0.00355911
-0.0193015
-0.00508975
-0.00508178
-0.0206627
-0.0192955
-0.0206606
-0.00356626
-0.019298
-0.00508335
-0.00508307
-0.0206606
-0.0192975
-0.0206674
-0.00358068
-0.0193051
-0.00508777
-0.00508687
-0.0206655
-0.0193076
-0.0206788
-0.0035875
-0.0193138
-0.00509659
-0.00509893
-0.0206751
-0.0193174
-0.0206992
-0.00360433
-0.0193323
-0.00511366
-0.00511951
-0.0206932
-0.0193373
-0.0207369
-0.00364053
-0.0193638
-0.0051466
-0.00515674
-0.0207255
-0.0193742
-0.0208074
-0.00371176
-0.019422
-0.00520838
-0.00522582
-0.0207855
-0.019443
-0.020943
-0.00384225
-0.0195332
-0.00532528
-0.00535952
-0.0209
-0.0195746
-0.0212208
-0.00409798
-0.0197573
-0.00556371
-0.00564004
-0.0211333
-0.0198423
-0.0218476
-0.00484758
-0.0206826
-0.00612919
-0.00634918
-0.0220221
-0.020569
0
-0.0283519
-0.0284119
-0.0140641
-0.02919
-0.0297273
0
-0.0226283
-0.0224338
-0.00684263
-0.0069682
-0.0224411
-0.00695971
-0.0226201
-0.0227772
-0.0225497
-0.00700588
-0.00706277
-0.0226078
-0.022726
-0.00710513
-0.0232
-0.0231899
-0.00740404
-0.00737133
-0.0229024
-0.0233553
-0.00745223
-0.0223185
-0.00651438
-0.0221175
-0.00666649
-0.0221131
-0.00665116
-0.0223207
-0.0223233
-0.0065173
-0.0221165
-0.00665266
-0.0221174
-0.00665329
-0.0223225
-0.0223288
-0.00652281
-0.0221212
-0.00665736
-0.022123
-0.0066586
-0.022327
-0.0223392
-0.0065334
-0.0221303
-0.00666641
-0.0221337
-0.00666878
-0.0223359
-0.0223581
-0.00655279
-0.0221471
-0.00668298
-0.0221533
-0.00668734
-0.0223521
-0.0223921
-0.00658793
-0.0221776
-0.00671287
-0.0221887
-0.00672077
-0.0223815
-0.0224535
-0.0066519
-0.0222331
-0.00676678
-0.0222534
-0.0067811
-0.0224343
-0.0225646
-0.00676968
-0.0223348
-0.00686437