/*--------------------------------*- C++ -*----------------------------------*\
| =========                 |                                                 |
| \\      /  F ield         | OpenFOAM: The Open Source CFD Toolbox           |
|  \\    /   O peration     | Version:  2012                                  |
|   \\  /    A nd           | Website:  www.openfoam.com                      |
|    \\/     M anipulation  |                                                 |
\*---------------------------------------------------------------------------*/
FoamFile
{
    version     2.0;
    format      ascii;
    class       volVectorField;
    location    "0.02";
    object      U;
}
// * * * * * * * * * * * * * * * * * * * * * * * * * * * * * * * * * * * * * //

dimensions      [0 1 -1 0 0 0 0];


internalField   nonuniform List<vector> 
17080
(
(0.00029509 0.0324842 -0.0336175)
(0.00098383 0.0324039 -0.0336426)
(0.00200865 0.032215 -0.0337048)
(0.00373637 0.0318538 -0.0338384)
(0.0068121 0.031195 -0.0341219)
(0.0124476 0.0300076 -0.0347379)
(0.0230091 0.0278767 -0.0361253)
(0.0431463 0.0240892 -0.0393922)
(0.0836475 0.0175264 -0.0473403)
(0.154664 0.00447916 -0.0420372)
(0.364611 0.000362884 -0.0887697)
(0.135748 0.0115871 0.0334327)
(0.0775961 0.00659129 0.0157838)
(0.044503 0.00412179 0.00887748)
(0.0233242 0.00293668 0.00599861)
(0.00729364 0.0024558 0.00492362)
(0.000215283 0.105128 -0.0420821)
(0.000716349 0.10491 -0.042101)
(0.00146237 0.104401 -0.0421469)
(0.00272336 0.103426 -0.0422458)
(0.00497833 0.10164 -0.0424565)
(0.0091506 0.0983922 -0.0429182)
(0.0171247 0.0924538 -0.0439756)
(0.032842 0.0815245 -0.0465384)
(0.0663909 0.0617775 -0.0530136)
(0.135535 0.0272245 -0.0436926)
(0.351835 0.00231071 -0.0886941)
(0.121244 0.0329448 0.0302964)
(0.0701308 0.0184196 0.0144307)
(0.0408641 0.0115941 0.00826738)
(0.0216633 0.00837519 0.00569051)
(0.00681338 0.00706932 0.00472175)
(5.26214e-05 0.190374 -0.0405246)
(0.000294741 0.190165 -0.0405297)
(0.00063818 0.189574 -0.0405398)
(0.00120124 0.188417 -0.0405642)
(0.00219395 0.186297 -0.0406176)
(0.00401335 0.182429 -0.0407328)
(0.0074689 0.175275 -0.0409871)
(0.0144281 0.16183 -0.0416228)
(0.030804 0.136004 -0.0436286)
(0.0864542 0.0861051 -0.0532522)
(0.306308 0.00780009 -0.0888477)
(0.0895926 0.0437202 0.0228341)
(0.0562235 0.0254933 0.0116859)
(0.0344851 0.0168711 0.0071275)
(0.0188073 0.0126612 0.0051311)
(0.00598853 0.0109017 0.00435475)
(6.71073e-05 0.394801 -0.0886658)
(5.72782e-05 0.394423 -0.0885681)
(6.89995e-05 0.393956 -0.0885576)
(8.45965e-05 0.392693 -0.0883871)
(0.000235219 0.391166 -0.0883974)
(0.000410023 0.388614 -0.0885102)
(0.00079375 0.383338 -0.0884766)
(0.00148025 0.373527 -0.088517)
(0.00348577 0.354156 -0.0887925)
(0.00733999 0.30646 -0.0890647)
(0.267604 0.217285 0.0506578)
(0.0617968 0.0408241 0.0142635)
(0.0433218 0.0274122 0.00864568)
(0.0280452 0.0197937 0.0058355)
(0.0156986 0.0156175 0.00446083)
(0.00505397 0.013759 0.0038932)
(0.00096648 0.187701 0.0432967)
(0.00291697 0.18732 0.0432984)
(0.00489845 0.186329 0.0432897)
(0.00697234 0.184273 0.0432726)
(0.00969435 0.179707 0.043229)
(0.010857 0.172491 0.0431014)
(0.0263601 0.140119 0.0432447)
(0.0562841 0.125047 0.0409501)
(0.0824218 0.104169 0.0357272)
(0.0944735 0.0689322 0.0259903)
(0.0780366 0.0503934 0.0153041)
(0.0520269 0.0379003 0.00966133)
(0.035115 0.0282084 0.00647744)
(0.0226925 0.0215319 0.00472304)
(0.0127753 0.0175376 0.00379963)
(0.00413004 0.0156877 0.00340069)
(0.000757778 0.13081 0.0223455)
(0.00218723 0.130484 0.0223628)
(0.00327346 0.129707 0.0224082)
(0.00319719 0.128249 0.0225203)
(0.00320446 0.12562 0.0228269)
(-0.0148184 0.121019 0.0233778)
(-0.00237856 0.0461601 0.0265144)
(0.0422749 0.0392259 0.0254812)
(0.0668776 0.0319264 0.0223326)
(0.08768 0.023553 0.017032)
(0.0739434 0.0636484 0.0100895)
(0.0413728 0.042232 0.00676958)
(0.0269664 0.0298027 0.00487687)
(0.0173766 0.0226171 0.00378617)
(0.00985692 0.0185724 0.00318236)
(0.00320436 0.0167344 0.00291229)
(0.000633033 0.0957944 0.0131679)
(0.00180895 0.0956288 0.0131886)
(0.00267756 0.0952953 0.0132386)
(0.002924 0.0948822 0.0133386)
(0.00265647 0.094995 0.0135107)
(0.00105885 0.0942424 0.0137236)
(0.00933827 0.0612972 0.00540578)
(0.017584 0.0403507 0.00441531)
(0.0155269 0.0288047 0.00357579)
(0.0114676 0.022232 0.00298311)
(0.0068953 0.0185529 0.00261991)
(0.00229271 0.0168815 0.00244894)
(0.000584603 0.0735889 0.00850303)
(0.0016793 0.0735579 0.00852132)
(0.00252396 0.0735301 0.00856482)
(0.00288444 0.0736095 0.00864713)
(0.00255774 0.0739443 0.00877367)
(0.00110234 0.0741716 0.00891018)
(0.0040104 0.0380777 0.00338485)
(0.00868259 0.0309706 0.00301648)
(0.00882789 0.0247909 0.00264016)
(0.00712282 0.0203314 0.00233438)
(0.00450786 0.0175547 0.00212905)
(0.00153386 0.0162332 0.00202731)
(0.000596017 0.0582964 0.00584227)
(0.00174364 0.0583599 0.00585328)
(0.00272865 0.0585618 0.00587957)
(0.00333836 0.0590841 0.00592892)
(0.00322476 0.0601464 0.00600159)
(0.00146812 0.0617295 0.00607607)
(0.00182038 0.027465 0.00226972)
(0.00430292 0.0241995 0.00213787)
(0.00488826 0.0207353 0.00197258)
(0.00423122 0.0179078 0.00182177)
(0.00279841 0.0160018 0.00171193)
(0.000972254 0.0150545 0.00165483)
(0.000643323 0.0471425 0.00416097)
(0.00193958 0.0472322 0.00416121)
(0.0032479 0.0475281 0.00416159)
(0.00446898 0.048373 0.00416075)
(0.00520833 0.0506365 0.00414956)
(0.00269364 0.0560018 0.00411565)
(0.000735064 0.0213016 0.00157382)
(0.00195049 0.0193649 0.00154318)
(0.00253613 0.0172339 0.00148268)
(0.0023892 0.0154867 0.00141576)
(0.00165579 0.0142549 0.00136153)
(0.000587685 0.013623 0.00133169)
(0.000681808 0.0386829 0.00300839)
(0.00212514 0.0386907 0.0029979)
(0.00386926 0.0387726 0.00297143)
(0.00644686 0.0391262 0.00291326)
(0.0108599 0.04023 0.00277672)
(0.0251099 0.0430699 0.00247109)
(0.0268883 0.00632545 0.00140434)
(0.0129093 0.00367533 0.000963239)
(0.00556675 0.00283807 0.000775155)
(-0.00302744 0.00311944 0.000772954)
(-0.00431684 0.0157941 0.00105656)
(0.000232661 0.0152044 0.00110818)
(0.00100984 0.0142201 0.00111064)
(0.00125213 0.0132739 0.00109042)
(0.000935836 0.0125492 0.00106756)
(0.000341469 0.0121606 0.00105351)
(0.000647861 0.0321879 0.00216932)
(0.0020258 0.0320548 0.00215347)
(0.00368278 0.03176 0.00211577)
(0.00592347 0.0312023 0.00204185)
(0.00914273 0.0299448 0.00190129)
(0.0146343 0.0269215 0.00164652)
(0.01507 0.0133932 0.00115095)
(0.00953048 0.0087809 0.000854311)
(0.00500509 0.00700403 0.000706689)
(0.000381465 0.00717997 0.000684202)
(-0.000927737 0.0115521 0.000784524)
(0.00037657 0.0119372 0.000818535)
(0.000605686 0.0118311 0.000831739)
(0.000718278 0.011429 0.000828242)
(0.000543516 0.0110491 0.000819799)
(0.000200081 0.0108287 0.000813706)
(0.00054604 0.0273016 0.00152784)
(0.00169454 0.02706 0.00151183)
(0.00301707 0.0265204 0.00147541)
(0.00463337 0.0255427 0.00140938)
(0.00658768 0.0237968 0.00129831)
(0.00874059 0.0206875 0.001125)
(0.00882109 0.0143645 0.000877195)
(0.00651665 0.0107891 0.000693903)
(0.00396611 0.00898325 0.000588688)
(0.00151211 0.00858245 0.00055474)
(0.000421451 0.0101049 0.000587065)
(0.000510849 0.0102588 0.00060183)
(0.000501372 0.0102508 0.000609622)
(0.000470023 0.0100594 0.000609874)
(0.000336493 0.00985442 0.000606818)
(0.000122001 0.00972906 0.000604212)
(0.000404008 0.0238131 0.00101333)
(0.00124239 0.0235141 0.00100048)
(0.00216568 0.0228687 0.000972165)
(0.00320024 0.0217803 0.000923599)
(0.00428817 0.0200823 0.000848404)
(0.00519308 0.0175789 0.000742687)
(0.00517974 0.0141079 0.00061297)
(0.0041487 0.011498 0.000506633)
(0.00279822 0.0098808 0.000438735)
(0.00150211 0.00917953 0.000409284)
(0.000749825 0.00938578 0.00041219)
(0.000522319 0.00934766 0.000416331)
(0.000406275 0.00925812 0.000419156)
(0.000321863 0.00911811 0.000419343)
(0.000213934 0.00898435 0.000418036)
(7.55325e-05 0.00890403 0.000416842)
(0.000245064 0.0215773 0.00057789)
(0.000748096 0.0212569 0.000569798)
(0.00128329 0.020585 0.000552354)
(0.00184703 0.0195116 0.000523527)
(0.00238612 0.0179781 0.000481221)
(0.00276472 0.0159712 0.000425413)
(0.00274129 0.0136302 0.000361814)
(0.00228955 0.0116265 0.000307159)
(0.00164752 0.0101969 0.000269659)
(0.00101692 0.00936662 0.000250408)
(0.000589831 0.00905394 0.000245978)
(0.000383182 0.00884177 0.000245552)
(0.000271815 0.00867741 0.000245797)
(0.000196246 0.00853476 0.000245507)
(0.00012316 0.00842344 0.000244811)
(4.2429e-05 0.008361 0.000244236)
(8.1824e-05 0.0203043 0.000185572)
(0.000248246 0.0199798 0.000182811)
(0.000420403 0.0193118 0.000176961)
(0.000593361 0.0182796 0.000167569)
(0.000747728 0.0168761 0.000154303)
(0.000844953 0.0151513 0.00013755)
(0.000835196 0.0132722 0.000119208)
(0.00071551 0.0115798 0.000103062)
(0.000538402 0.0102708 9.13839e-05)
(0.000359187 0.00939627 8.46581e-05)
(0.000225023 0.00889612 8.19876e-05)
(0.00014581 0.0085822 8.10664e-05)
(9.92789e-05 0.00836762 8.07167e-05)
(6.78978e-05 0.00821144 8.04467e-05)
(4.08857e-05 0.0081037 8.01818e-05)
(1.3796e-05 0.00804685 8.00001e-05)
(0.00027037 0.0240883 -0.091021)
(0.000897645 0.0240143 -0.0910855)
(0.00181485 0.0238421 -0.0912443)
(0.00332362 0.0235163 -0.0915794)
(0.00592265 0.0229318 -0.0922712)
(0.0104681 0.0219012 -0.0937173)
(0.0184154 0.0201045 -0.0968091)
(0.0320972 0.0170276 -0.103602)
(0.0549971 0.0119425 -0.118844)
(0.0873798 0.00316393 -0.13939)
(0.117796 0.000166472 -0.217271)
(0.0761518 0.00857196 0.0648582)
(0.0538146 0.0052458 0.035981)
(0.0347964 0.00351281 0.0225471)
(0.0193873 0.00262876 0.0163152)
(0.00622092 0.00225392 0.0138271)
(0.000196732 0.0728479 -0.107579)
(0.000652621 0.0726464 -0.107627)
(0.00131942 0.0721792 -0.107744)
(0.00241793 0.0712941 -0.107993)
(0.00431554 0.0697024 -0.108505)
(0.00765427 0.0668833 -0.109581)
(0.0135623 0.0619231 -0.111907)
(0.0239617 0.0532707 -0.117127)
(0.0422439 0.038479 -0.129224)
(0.0729971 0.0178062 -0.144116)
(0.10452 0.00154271 -0.218537)
(0.0664771 0.0228108 0.0588674)
(0.0487654 0.0143489 0.0331626)
(0.0321877 0.00984889 0.0211662)
(0.0181318 0.00750899 0.0155582)
(0.00584655 0.00650112 0.0133016)
(4.79725e-05 0.118471 -0.13342)
(0.000268729 0.118259 -0.133441)
(0.000577407 0.1177 -0.133494)
(0.00107642 0.116617 -0.133606)
(0.00193722 0.114652 -0.133839)
(0.0034644 0.111137 -0.134325)
(0.00622164 0.104864 -0.135378)
(0.0112873 0.093631 -0.137794)
(0.0208269 0.0734379 -0.143838)
(0.0405015 0.0401215 -0.161648)
(0.0648219 0.00373143 -0.218725)
(0.051711 0.0282481 0.0463129)
(0.0408636 0.0197489 0.0277839)
(0.0279653 0.0144471 0.0186539)
(0.0160436 0.0114341 0.0141911)
(0.00521353 0.0100748 0.0123437)
(2.49983e-05 0.152867 -0.216562)
(4.74942e-05 0.152633 -0.217309)
(9.4299e-05 0.152116 -0.217319)
(0.000158125 0.151088 -0.217338)
(0.000255306 0.149198 -0.217373)
(0.000419575 0.145789 -0.217438)
(0.00073229 0.139625 -0.217562)
(0.00143795 0.12833 -0.217829)
(0.0026657 0.107024 -0.21832)
(0.00581998 0.0647627 -0.218456)
(0.0625677 -0.00549971 0.0602133)
(0.046039 0.0280556 0.0328282)
(0.0349694 0.0222323 0.0219031)
(0.0238746 0.017396 0.0157651)
(0.0137614 0.0142888 0.012522)
(0.00448721 0.0128069 0.0111211)
(0.000968202 0.122396 0.0898301)
(0.00291129 0.122021 0.0898259)
(0.00488398 0.121102 0.0898153)
(0.00693451 0.119216 0.0898187)
(0.00956781 0.115096 0.0898265)
(0.0109889 0.108796 0.0896317)
(0.0243869 0.0806761 0.0900159)
(0.0490377 0.0680199 0.0847891)
(0.0680015 0.0524888 0.0735653)
(0.0746161 0.0342978 0.055156)
(0.0620764 0.0358648 0.0357886)
(0.043276 0.0304708 0.024274)
(0.0301947 0.024451 0.0172453)
(0.0200218 0.0194871 0.0131001)
(0.011456 0.0162617 0.010807)
(0.00373169 0.0147088 0.00978647)
(0.000774386 0.101624 0.053571)
(0.00224828 0.101318 0.0536105)
(0.00343121 0.100597 0.0537237)
(0.00361545 0.0992542 0.0540153)
(0.00405877 0.0968424 0.0548265)
(-0.0111519 0.0926239 0.056027)
(-0.00025279 0.0300761 0.0636058)
(0.0381317 0.0244014 0.0610811)
(0.0584842 0.0190823 0.0535567)
(0.0755091 0.0148452 0.0414267)
(0.0636994 0.0539672 0.0257416)
(0.0361881 0.0369963 0.0180196)
(0.0239922 0.0269069 0.0134461)
(0.0156859 0.0208805 0.0107079)
(0.00898491 0.0173949 0.00914644)
(0.00293471 0.0157846 0.00843489)
(0.000653163 0.0820715 0.034319)
(0.00187858 0.0819067 0.0343744)
(0.00282749 0.0815707 0.0345169)
(0.00319564 0.0811262 0.0348202)
(0.0030411 0.0810529 0.0353723)
(0.00132983 0.079885 0.0360354)
(0.00825225 0.0546663 0.0145887)
(0.0157636 0.0366121 0.0122043)
(0.0140984 0.0265732 0.0100934)
(0.0105137 0.0207832 0.00855489)
(0.00636226 0.0175016 0.00759097)
(0.00212204 0.0159984 0.00713098)
(0.00060251 0.0662969 0.0233015)
(0.0017404 0.0662562 0.0233529)
(0.00264978 0.0662046 0.0234825)
(0.00309315 0.0662334 0.0237448)
(0.00282111 0.0664694 0.0241776)
(0.00123942 0.0665594 0.0246922)
(0.00364116 0.0349532 0.00946804)
(0.00793947 0.0286985 0.00855288)
(0.00814721 0.023191 0.00757623)
(0.00661268 0.0191724 0.00676257)
(0.00420147 0.0166485 0.00620719)
(0.00143234 0.0154408 0.00592918)
(0.000606765 0.0539682 0.0164802)
(0.00178054 0.0540136 0.0165116)
(0.00280443 0.0541724 0.0165925)
(0.00346048 0.0546117 0.0167594)
(0.00337235 0.0555366 0.0170336)
(0.00154283 0.0569497 0.0173677)
(0.00168845 0.0256581 0.00649173)
(0.00400611 0.0227292 0.00616077)
(0.00457276 0.0195802 0.00572422)
(0.00397106 0.016991 0.00531643)
(0.00263189 0.0152358 0.00501513)
(0.000915307 0.0143604 0.00485716)
(0.000643382 0.0443161 0.0119351)
(0.00193998 0.0443843 0.0119353)
(0.00324771 0.0446274 0.0119395)
(0.00445736 0.0453649 0.0119536)
(0.00516399 0.0474194 0.0119661)
(0.00266003 0.0524053 0.011952)
(0.000704373 0.0200908 0.00456127)
(0.00185935 0.0183372 0.00449323)
(0.00240896 0.0163737 0.00433554)
(0.00226829 0.0147568 0.00415355)
(0.00157198 0.0136118 0.0040034)
(0.00055795 0.013023 0.00391999)
(0.000671203 0.036696 0.00871543)
(0.00208808 0.0366877 0.00868419)
(0.00378494 0.0367315 0.00860766)
(0.00625257 0.0370121 0.00844356)
(0.0104186 0.0379862 0.00805633)
(0.0237605 0.0406042 0.00718008)
(0.0253931 0.0060609 0.00401016)
(0.0122819 0.00356632 0.00272274)
(0.00537676 0.00276963 0.00218906)
(-0.00274734 0.00302997 0.00220372)
(-0.00398409 0.0150061 0.00307902)
(0.000286725 0.0144812 0.00324603)
(0.000992226 0.0135704 0.00326473)
(0.00120916 0.0126876 0.00321139)
(0.000899085 0.0120086 0.00314788)
(0.000327489 0.0116437 0.00310821)
(0.00063194 0.0307108 0.0063237)
(0.00197223 0.0305722 0.00627681)
(0.0035715 0.0302674 0.00616639)
(0.00570955 0.0297019 0.00595176)
(0.00874835 0.0284701 0.00554432)
(0.0138842 0.0255796 0.00480266)
(0.0142803 0.0128681 0.00333383)
(0.00908727 0.00851217 0.0024675)
(0.00483541 0.00681798 0.00204327)
(0.000459295 0.00696238 0.00198474)
(-0.000793337 0.0110837 0.00231324)
(0.000423772 0.011432 0.00240939)
(0.000615443 0.0113312 0.00245442)
(0.000706397 0.0109494 0.00244625)
(0.000529089 0.0105893 0.00242246)
(0.000194041 0.0103804 0.00240494)
(0.000529992 0.0261483 0.0044716)
(0.00164213 0.0259097 0.00442444)
(0.0029149 0.0253794 0.00431765)
(0.00445669 0.024427 0.00412494)
(0.00630392 0.0227463 0.00380135)
(0.00832007 0.0197858 0.0032953)
(0.0083909 0.0138281 0.00256572)
(0.00622878 0.0104424 0.00203094)
(0.0038273 0.00871608 0.00172687)
(0.00151063 0.00830831 0.00163189)
(0.000468614 0.00973346 0.0017366)
(0.000533434 0.0098575 0.00178051)
(0.000509456 0.00983911 0.00180424)
(0.000467257 0.00965143 0.00180501)
(0.000330905 0.00945351 0.00179587)
(0.000119432 0.00933304 0.00178808)
(0.000391132 0.0228654 0.00297345)
(0.00120124 0.0225742 0.00293569)
(0.002089 0.0219477 0.00285275)
(0.00307677 0.0208964 0.00271093)
(0.00410764 0.019267 0.00249175)
(0.00495806 0.0168808 0.00218342)
(0.00494414 0.0135938 0.00180389)
(0.00397485 0.0111123 0.00149406)
(0.00270112 0.00956262 0.00129706)
(0.00147571 0.00887599 0.00121244)
(0.000756949 0.00904548 0.00122305)
(0.000529324 0.00899218 0.00123503)
(0.00040932 0.00889508 0.00124283)
(0.000320768 0.00875452 0.00124276)
(0.000211483 0.00862311 0.00123844)
(7.43637e-05 0.00854482 0.00123467)
(0.000236957 0.0207514 0.00169845)
(0.00072257 0.0204411 0.00167471)
(0.00123714 0.0197915 0.00162366)
(0.00177605 0.0187572 0.00153952)
(0.00228821 0.0172855 0.00141625)
(0.00264554 0.0153674 0.0012537)
(0.00262327 0.0131376 0.00106829)
(0.00219759 0.0112239 0.000909176)
(0.00159091 0.00985038 0.000800083)
(0.000993333 0.00904278 0.00074407)
(0.000585031 0.00872448 0.000731169)
(0.000383034 0.00850723 0.000729439)
(0.000271791 0.00833969 0.000729553)
(0.000195276 0.00819657 0.000728149)
(0.000121919 0.00808628 0.000725712)
(4.18694e-05 0.00802485 0.00072382)
(7.90583e-05 0.0195442 0.00054599)
(0.000239639 0.0192304 0.0005379)
(0.000405197 0.0185856 0.000520798)
(0.000570754 0.0175913 0.000493397)
(0.000717772 0.0162431 0.000454763)
(0.000809928 0.0145905 0.00040601)
(0.000800779 0.012793 0.000352632)
(0.000687749 0.011171 0.000305642)
(0.000520047 0.00991103 0.000271603)
(0.000349825 0.00906232 0.000251906)
(0.000221453 0.0085692 0.000243941)
(0.000144552 0.00825659 0.000240999)
(9.86675e-05 0.00804208 0.000239719)
(6.73684e-05 0.00788645 0.000238712)
(4.04486e-05 0.00777966 0.000237784)
(1.36191e-05 0.00772356 0.000237174)
(0.000231077 0.0158437 -0.130948)
(0.000761171 0.01578 -0.131033)
(0.00151507 0.0156331 -0.13124)
(0.00271017 0.0153603 -0.131663)
(0.00467562 0.0148833 -0.1325)
(0.00791223 0.0140708 -0.13415)
(0.0131267 0.0127147 -0.13741)
(0.0211039 0.0105142 -0.143856)
(0.0319392 0.00711272 -0.156487)
(0.0456095 0.00187771 -0.171541)
(0.0568855 0.000181807 -0.216131)
(0.0424414 0.00555834 0.0619004)
(0.0349769 0.00376005 0.0416167)
(0.0248308 0.00273752 0.029812)
(0.0146094 0.00217816 0.0234524)
(0.00480557 0.00192921 0.0206838)
(0.000167476 0.0453575 -0.145124)
(0.000551139 0.0451845 -0.145187)
(0.0010968 0.0447863 -0.145339)
(0.00196294 0.0440462 -0.145651)
(0.00339033 0.04275 -0.146267)
(0.00575028 0.0405348 -0.147484)
(0.00957974 0.0368159 -0.149902)
(0.0155136 0.0307119 -0.154735)
(0.0237803 0.0210502 -0.164397)
(0.0365405 0.00998023 -0.175113)
(0.0480621 0.00149924 -0.217801)
(0.037386 0.014261 0.0566633)
(0.0321638 0.0101957 0.0388796)
(0.0232532 0.00769646 0.0283022)
(0.0138031 0.00624984 0.0225244)
(0.00455697 0.00558517 0.0199871)
(4.12698e-05 0.0693162 -0.165249)
(0.000227594 0.0691289 -0.165277)
(0.000483022 0.0686439 -0.165346)
(0.000883628 0.0677207 -0.16549)
(0.00154811 0.0660837 -0.165777)
(0.0026671 0.0632517 -0.166351)
(0.00454192 0.0584179 -0.167506)
(0.00760164 0.050285 -0.169872)
(0.0122124 0.0368914 -0.174787)
(0.0187897 0.0184998 -0.184911)
(0.026358 0.00346902 -0.214213)
(0.0317643 0.0174078 0.0473959)
(0.0284223 0.0142143 0.0340614)
(0.0208889 0.0114686 0.0256274)
(0.0125005 0.00962549 0.0208483)
(0.00414137 0.00872192 0.0187069)
(3.60782e-05 0.084612 -0.216943)
(6.76023e-05 0.0841868 -0.218355)
(0.000135012 0.0837188 -0.218347)
(0.000219568 0.0828041 -0.218329)
(0.000339833 0.0811579 -0.218297)
(0.000533874 0.0782727 -0.218239)
(0.000903123 0.0732694 -0.218125)
(0.00178576 0.0646508 -0.217927)
(0.00338057 0.0499655 -0.217302)
(0.0081446 0.0261401 -0.213533)
(0.0291684 -0.0174912 0.0607778)
(0.032706 0.0187206 0.0386679)
(0.0262307 0.0168665 0.0288699)
(0.0186652 0.0142401 0.022474)
(0.0110574 0.0122343 0.0187416)
(0.00365356 0.0112027 0.0170365)
(0.000957752 0.0796525 0.0950394)
(0.00289594 0.0793379 0.095012)
(0.00489246 0.0785587 0.0949758)
(0.00698588 0.0769836 0.0949876)
(0.00951132 0.0736504 0.0950965)
(0.0110564 0.0686721 0.095003)
(0.0215135 0.0468498 0.0957047)
(0.039794 0.0376567 0.0896954)
(0.0526281 0.027735 0.0775409)
(0.05641 0.0185603 0.0601294)
(0.0470787 0.0246698 0.0429806)
(0.0334684 0.0230496 0.0316463)
(0.0239425 0.0197493 0.0241043)
(0.0162568 0.0164755 0.0192883)
(0.00946406 0.0141633 0.0164599)
(0.00311008 0.0130026 0.0151546)
(0.000794018 0.0748178 0.0659888)
(0.00233589 0.0745523 0.0660269)
(0.00367895 0.0739313 0.0661638)
(0.00430054 0.0727812 0.0665798)
(0.00521356 0.0707212 0.0678315)
(-0.00606473 0.0671113 0.0691427)
(0.0027078 0.0191935 0.0792816)
(0.0322231 0.0150929 0.0761762)
(0.0471942 0.0116019 0.0670212)
(0.0598471 0.00964945 0.0527485)
(0.0504801 0.0427342 0.0342669)
(0.0290958 0.0301481 0.0251686)
(0.0196605 0.0226503 0.0196218)
(0.0130794 0.0180732 0.0161739)
(0.00758584 0.0153577 0.0141395)
(0.00249345 0.0140801 0.0131909)
(0.000686252 0.0655051 0.0466222)
(0.00200437 0.0653512 0.0466926)
(0.00312401 0.0650333 0.0468995)
(0.00378025 0.0645886 0.0474069)
(0.00387546 0.0643136 0.0484523)
(0.00184153 0.0628769 0.0498913)
(0.00674726 0.0451387 0.0206482)
(0.0131 0.0308995 0.0178405)
(0.0118802 0.0229387 0.0151936)
(0.00896658 0.0182888 0.0131805)
(0.00547272 0.0156151 0.0118805)
(0.00183332 0.0143772 0.0112486)
(0.00063454 0.0557558 0.0336695)
(0.00185854 0.0557006 0.0337397)
(0.00291607 0.055611 0.0339409)
(0.00357989 0.0555534 0.0344155)
(0.00350729 0.0556102 0.0353406)
(0.0016195 0.0555081 0.0367447)
(0.00309246 0.0299916 0.0140321)
(0.00679231 0.0249307 0.0129479)
(0.00703881 0.0204241 0.0116814)
(0.00575457 0.0170947 0.0105828)
(0.00367543 0.0149803 0.00981323)
(0.00125637 0.0139607 0.00942202)
(0.000626331 0.0469362 0.0247467)
(0.00185479 0.0469484 0.0247889)
(0.00297665 0.0470248 0.024919)
(0.00377954 0.0472987 0.025246)
(0.00383449 0.0479407 0.0259103)
(0.00180357 0.0489951 0.0269901)
(0.00148886 0.0225625 0.00994257)
(0.00353543 0.0201424 0.00956331)
(0.00404448 0.0174965 0.00898456)
(0.00352258 0.0153003 0.00842066)
(0.00233982 0.0137993 0.00799347)
(0.000814708 0.0130465 0.0077664)
(0.000642719 0.0393825 0.0183604)
(0.00194317 0.0394095 0.0183553)
(0.00326639 0.0395479 0.0183635)
(0.00449571 0.0400618 0.018431)
(0.00520774 0.041664 0.0186165)
(0.00268017 0.0458188 0.0189904)
(0.000666797 0.017891 0.00713916)
(0.00172458 0.016452 0.00709601)
(0.00219672 0.0147759 0.00689354)
(0.00205729 0.013383 0.00663919)
(0.00142271 0.0123888 0.00642227)
(0.000504606 0.0118752 0.00629989)
(0.000649998 0.0330751 0.0136174)
(0.00201679 0.0330358 0.0135639)
(0.00362887 0.033003 0.0134403)
(0.0058958 0.0331278 0.0131925)
(0.00959645 0.0338107 0.0126158)
(0.0211214 0.0359191 0.0112889)
(0.0224598 0.00561732 0.00602791)
(0.0110906 0.00341982 0.00403536)
(0.00504808 0.00269226 0.00324805)
(-0.00214024 0.00289811 0.00332565)
(-0.00328042 0.0135468 0.00486861)
(0.000418444 0.0131219 0.00517688)
(0.000975315 0.0123402 0.00523904)
(0.00113541 0.0115677 0.00516838)
(0.000833005 0.0109693 0.00507531)
(0.000302056 0.0106466 0.00501569)
(0.000600569 0.027947 0.00998225)
(0.00186812 0.027798 0.00990533)
(0.003358 0.0274729 0.00972754)
(0.00530182 0.0268867 0.00938923)
(0.00799409 0.0256934 0.00875333)
(0.0124221 0.0230431 0.0075879)
(0.0127395 0.0119521 0.00517997)
(0.0082409 0.00808992 0.0038198)
(0.0045228 0.00654227 0.00317489)
(0.000651218 0.0066089 0.00310047)
(-0.000502843 0.0102111 0.00374214)
(0.000517781 0.0104728 0.0038809)
(0.000642607 0.0103717 0.00396711)
(0.000686387 0.0100235 0.00395754)
(0.000502454 0.009698 0.0039207)
(0.000182752 0.00950949 0.00389309)
(0.000498601 0.0239538 0.00710725)
(0.00154036 0.0237213 0.00703111)
(0.00271781 0.0232092 0.00686029)
(0.00411743 0.0223043 0.00655534)
(0.00575852 0.0207466 0.00604659)
(0.00750526 0.0180708 0.00524891)
(0.00755796 0.0128362 0.00407888)
(0.00567844 0.0098167 0.0032394)
(0.00356742 0.00823783 0.00276982)
(0.00152193 0.0078109 0.00263102)
(0.00057018 0.00901565 0.00282419)
(0.00057853 0.00908534 0.00289424)
(0.000525911 0.00904009 0.00293152)
(0.000461691 0.00885681 0.00293079)
(0.000319739 0.00867123 0.00291451)
(0.000114349 0.00855961 0.00290118)
(0.000366064 0.0210421 0.00474753)
(0.00112155 0.0207664 0.00468708)
(0.00194111 0.0201767 0.0045551)
(0.00283951 0.0191968 0.00433103)
(0.003761 0.017699 0.00398664)
(0.0045056 0.0155389 0.00350248)
(0.00449091 0.0126118 0.0029035)
(0.00364226 0.0103773 0.00241817)
(0.00251686 0.00895486 0.002111)
(0.00142822 0.00829248 0.00198001)
(0.000772488 0.00838114 0.00199981)
(0.000542141 0.00829738 0.0020165)
(0.00041404 0.00818421 0.00202562)
(0.000317505 0.00804202 0.00202248)
(0.000205966 0.00791495 0.00201346)
(7.18598e-05 0.00784052 0.00200638)
(0.000221221 0.0191517 0.00271945)
(0.000673232 0.0188609 0.00268163)
(0.00114822 0.0182547 0.00260067)
(0.00163977 0.0172957 0.00246797)
(0.0021005 0.0159426 0.00227451)
(0.002417 0.0141952 0.00201999)
(0.00239703 0.01218 0.00172948)
(0.00202156 0.010439 0.00148052)
(0.00148257 0.00917226 0.00130943)
(0.000948098 0.00840686 0.0012207)
(0.000575251 0.00807558 0.00119885)
(0.000381599 0.00784846 0.00119352)
(0.000270548 0.00767501 0.00119101)
(0.000192421 0.00753141 0.00118653)
(0.000118902 0.00742347 0.00118112)
(4.05934e-05 0.00736419 0.00117735)
(7.37024e-05 0.0180662 0.000875827)
(0.000223031 0.0177733 0.000862982)
(0.000375939 0.0171731 0.000835921)
(0.000527381 0.0162519 0.000792774)
(0.000660409 0.0150097 0.000732199)
(0.000742902 0.0134954 0.000655967)
(0.000734915 0.0118543 0.00057254)
(0.000634557 0.0103674 0.000499007)
(0.000484722 0.00920113 0.000445414)
(0.000331561 0.00840204 0.000413896)
(0.000214137 0.00792264 0.000400437)
(0.0001416 0.00761334 0.00039472)
(9.70005e-05 0.00739988 0.000391684)
(6.5969e-05 0.00724608 0.000389276)
(3.93711e-05 0.00714169 0.000387253)
(1.32041e-05 0.00708732 0.00038601)
(0.000185785 0.00985756 -0.156671)
(0.000606288 0.00980597 -0.156761)
(0.00118497 0.00968867 -0.156974)
(0.00206377 0.00947546 -0.157396)
(0.00343651 0.00911344 -0.158192)
(0.00555787 0.00851922 -0.159673)
(0.00870635 0.00757184 -0.162388)
(0.0130109 0.00611717 -0.167271)
(0.0179939 0.00401227 -0.175712)
(0.0241344 0.00104817 -0.184179)
(0.0295302 0.000207878 -0.211624)
(0.0233708 0.00331266 0.0553202)
(0.0216771 0.00249989 0.0421367)
(0.0166281 0.00199896 0.0332334)
(0.0102606 0.00169825 0.0279109)
(0.0034519 0.0015551 0.0254455)
(0.000134265 0.0273852 -0.166509)
(0.000437705 0.0272456 -0.166575)
(0.000855169 0.0269282 -0.16673)
(0.00148974 0.0263508 -0.167037)
(0.00248219 0.0253693 -0.167618)
(0.00401914 0.0237552 -0.168699)
(0.00630819 0.021173 -0.17069)
(0.00945576 0.0171824 -0.174292)
(0.0131396 0.0113283 -0.180587)
(0.0188791 0.0054029 -0.186332)
(0.023846 0.00159834 -0.213962)
(0.0210783 0.00826827 0.0516356)
(0.0203672 0.00678353 0.0399571)
(0.0158287 0.00566019 0.0318827)
(0.00981794 0.00490249 0.0269851)
(0.00330902 0.00452236 0.024698)
(3.41146e-05 0.0407209 -0.17905)
(0.000182565 0.0405682 -0.179081)
(0.000381114 0.0401765 -0.179151)
(0.000681149 0.0394459 -0.179294)
(0.00115582 0.0381863 -0.179569)
(0.00190902 0.0360868 -0.180086)
(0.00307486 0.0326718 -0.181056)
(0.00477322 0.0272766 -0.182849)
(0.00690846 0.0191175 -0.186064)
(0.00943083 0.00922672 -0.191277)
(0.011948 0.00236114 -0.205379)
(0.0199688 0.0102281 0.0456097)
(0.0190748 0.00973538 0.0362528)
(0.0147493 0.00861759 0.0294962)
(0.00912428 0.00765098 0.0252956)
(0.00307224 0.00712406 0.0233078)
(4.96758e-05 0.0494364 -0.214083)
(0.000105793 0.0488977 -0.216848)
(0.000209549 0.0485046 -0.216816)
(0.00033749 0.0477507 -0.21675)
(0.000512928 0.0464324 -0.216624)
(0.000782433 0.044201 -0.21639)
(0.00127858 0.0405104 -0.215932)
(0.00242823 0.0345326 -0.215071)
(0.00458691 0.0251165 -0.212983)
(0.0101904 0.0114605 -0.203294)
(0.0298235 -0.00803223 0.0520929)
(0.0228294 0.0122965 0.0400202)
(0.0187598 0.0122721 0.0321592)
(0.0137448 0.0110557 0.0265796)
(0.00832515 0.00990003 0.0231039)
(0.00278244 0.00925436 0.0214502)
(0.000933106 0.0515414 0.0907901)
(0.00284055 0.0512961 0.0907103)
(0.00485988 0.050702 0.090574)
(0.00705606 0.0495539 0.0904654)
(0.0095849 0.0473078 0.0905122)
(0.0116003 0.0436833 0.0906451)
(0.0190752 0.0293704 0.0925689)
(0.0308658 0.023254 0.08712)
(0.0384063 0.0170392 0.0760042)
(0.0400377 0.01252 0.0606369)
(0.0335861 0.0175565 0.044944)
(0.0243962 0.0169483 0.0348504)
(0.0178358 0.0152001 0.0279798)
(0.0123773 0.0131861 0.0234109)
(0.00732373 0.0116592 0.0206178)
(0.00242704 0.0108631 0.0192923)
(0.000806861 0.053099 0.0692563)
(0.00241778 0.0528898 0.0692524)
(0.00398414 0.0524145 0.0693216)
(0.00528258 0.0515713 0.069715)
(0.00661704 0.0501072 0.0711727)
(0.000268272 0.0475148 0.0731943)
(0.00679974 0.0135056 0.0889288)
(0.0258828 0.0107937 0.0860957)
(0.0350533 0.00851154 0.0763695)
(0.0427524 0.00743447 0.0608635)
(0.0360852 0.0319278 0.0384582)
(0.0215582 0.0231753 0.0291128)
(0.0150003 0.0179931 0.0235681)
(0.0102041 0.014772 0.0200828)
(0.00600319 0.0128153 0.0179749)
(0.00198689 0.0118784 0.0169723)
(0.000719716 0.0497388 0.0525308)
(0.00215216 0.0496062 0.0525718)
(0.00354213 0.0493343 0.0527534)
(0.00474918 0.0489478 0.0533802)
(0.0055309 0.0485447 0.0552427)
(0.00287803 0.0474802 0.0596205)
(0.00524432 0.0345472 0.0236757)
(0.0103173 0.0244039 0.0213538)
(0.00943937 0.018634 0.018778)
(0.00720083 0.0151921 0.0166965)
(0.0044314 0.0131753 0.0153062)
(0.00149091 0.0122294 0.014617)
(0.000669959 0.0444176 0.0399255)
(0.002009 0.0443486 0.0399738)
(0.00332573 0.0442201 0.0401699)
(0.00449307 0.0440681 0.0408157)
(0.0051532 0.0439227 0.0427002)
(0.00264905 0.0436523 0.0473695)
(0.00255315 0.0242532 0.0168515)
(0.00558885 0.0204217 0.0160824)
(0.00578251 0.0169821 0.0148094)
(0.0047447 0.0144126 0.0136394)
(0.00304149 0.0127615 0.0127912)
(0.00104186 0.0119585 0.012352)
(0.000646928 0.0386582 0.0304153)
(0.00195086 0.0386284 0.0304364)
(0.00326155 0.0385941 0.0305578)
(0.00445163 0.038626 0.0310282)
(0.00511811 0.0388112 0.0325243)
(0.00262623 0.039194 0.0364702)
(0.00130787 0.0187667 0.0124325)
(0.0030474 0.0168776 0.0122414)
(0.00343024 0.0147924 0.0116287)
(0.00298005 0.0130474 0.0110081)
(0.00197831 0.0118448 0.0105223)
(0.00068887 0.0112382 0.0102597)
(0.000636817 0.0331867 0.0231348)
(0.00194161 0.0331592 0.0231044)
(0.00332329 0.0331486 0.023082)
(0.00471007 0.0333111 0.0232041)
(0.00572421 0.0341245 0.0239006)
(0.00303589 0.036703 0.0262422)
(0.000660542 0.0150169 0.0091904)
(0.00161315 0.0139509 0.00928164)
(0.00195219 0.0126282 0.00906634)
(0.00179705 0.0115046 0.00877811)
(0.00123323 0.0106937 0.00852261)
(0.000436099 0.0102722 0.00837601)
(0.000616613 0.028318 0.0174589)
(0.0019099 0.0282378 0.0173745)
(0.00341342 0.0280955 0.0171908)
(0.00542766 0.02797 0.01686)
(0.00851346 0.0281212 0.0161588)