/*--------------------------------*- C++ -*----------------------------------*\
| =========                 |                                                 |
| \\      /  F ield         | OpenFOAM: The Open Source CFD Toolbox           |
|  \\    /   O peration     | Version:  2012                                  |
|   \\  /    A nd           | Website:  www.openfoam.com                      |
|    \\/     M anipulation  |                                                 |
\*---------------------------------------------------------------------------*/
FoamFile
{
    version     2.0;
    format      ascii;
    class       surfaceVectorField;
    location    "0.02";
    object      Uf;
}
// * * * * * * * * * * * * * * * * * * * * * * * * * * * * * * * * * * * * * //

dimensions      [0 1 -1 0 0 0 0];


internalField   nonuniform List<vector> 
52798
(
(0.000599916 0.032444 -0.0336301)
(0.000255186 0.0654151 -0.0378498)
(0.00028273 0.0282862 -0.066015)
(0.00140275 0.0323094 -0.0336737)
(0.000850089 0.0652606 -0.0378718)
(0.000940738 0.0282091 -0.0660635)
(0.00269029 0.0320344 -0.0337716)
(0.00173551 0.0648961 -0.0379258)
(0.00191175 0.0280286 -0.0661836)
(0.00493184 0.0315244 -0.0339802)
(0.00322987 0.0641995 -0.0380421)
(0.00353 0.0276851 -0.0664411)
(0.0089865 0.0306013 -0.0344299)
(0.00589522 0.0629293 -0.0382892)
(0.00636738 0.0270634 -0.0669839)
(0.0164997 0.0289422 -0.0354316)
(0.0107991 0.0606399 -0.038828)
(0.0114579 0.0259544 -0.068153)
(0.0307269 0.025983 -0.0377587)
(0.0200669 0.0565259 -0.0400504)
(0.0207122 0.0239906 -0.0707532)
(0.0583044 0.0208078 -0.0433663)
(0.0379941 0.0491788 -0.0429653)
(0.0376217 0.0205584 -0.0767563)
(0.121713 0.00882825 -0.0438049)
(0.0750192 0.0363394 -0.050177)
(0.0693223 0.0147345 -0.0908903)
(0.119205 0.0155202 -0.0440926)
(0.106421 0.00851424 -0.0841284)
(0.104082 0.0145079 -0.0848728)
(0.152687 0.00876925 -0.042253)
(0.139808 0.00424366 -0.0788282)
(0.184182 0.00355836 -0.075344)
(0.199365 0.00230015 -0.0422835)
(0.18467 0.00227196 -0.0752215)
(0.198873 0.00358935 -0.0423026)
(0.386727 0.000369603 -0.0792311)
(0.556606 0.00238659 -0.0153748)
(0.364226 0.000647944 -0.0888306)
(0.312923 0.000368772 -0.170526)
(0.100448 0.00908919 0.0246082)
(0.128496 0.0229948 0.0318645)
(0.10595 0.0100795 0.0585483)
(0.211666 0.0102869 0.0590214)
(0.209252 0.0226095 0.0585784)
(0.154659 0.00987867 0.0967512)
(0.152389 0.0212495 0.0955566)
(0.0578137 0.00535654 0.0123306)
(0.0738635 0.0130559 0.0151072)
(0.0657053 0.00591855 0.0295787)
(0.0323864 0.00352924 0.00743805)
(0.0426835 0.0081863 0.00857243)
(0.0396497 0.0038173 0.0172409)
(0.0146851 0.00269624 0.00546111)
(0.0224938 0.00584913 0.00584456)
(0.0213558 0.00278272 0.0118521)
(0.00705351 0.00489813 0.00482268)
(0.00675728 0.00235486 0.00978694)
(0.000437028 0.105019 -0.0420916)
(0.000106842 0.15366 -0.0410438)
(0.000206007 0.088988 -0.0812367)
(0.000183671 0.153642 -0.0410442)
(0.000106285 0.13879 -0.0792574)
(0.000181239 0.138767 -0.0792603)
(0.00102171 0.104656 -0.0421239)
(0.000435277 0.153441 -0.0410534)
(0.000684485 0.0887783 -0.0812728)
(0.000536872 0.153337 -0.0410551)
(0.000430187 0.138558 -0.079275)
(0.000530455 0.138459 -0.0792826)
(0.00196037 0.103914 -0.0421964)
(0.000912911 0.152863 -0.0410755)
(0.0013909 0.0882903 -0.0813613)
(0.00107516 0.152662 -0.0410824)
(0.000900139 0.137975 -0.0793161)
(0.0010598 0.137775 -0.0793365)
(0.00359974 0.102533 -0.0423512)
(0.00170861 0.151749 -0.0411247)
(0.00257065 0.0873602 -0.081551)
(0.00199315 0.151375 -0.04114)
(0.0016829 0.136846 -0.0794056)
(0.00195969 0.136475 -0.079449)
(0.006585 0.100016 -0.0426874)
(0.00312208 0.149702 -0.0412305)
(0.00464694 0.0856714 -0.0819515)
(0.00364065 0.149014 -0.0412608)
(0.00307002 0.134773 -0.0795943)
(0.00356917 0.134093 -0.0796829)
(0.0121935 0.095423 -0.0434469)
(0.00572577 0.145968 -0.0414613)
(0.00840244 0.0826377 -0.0828189)
(0.00669578 0.144692 -0.0415244)
(0.00561465 0.130996 -0.079998)
(0.00653971 0.129745 -0.0801868)
(0.0230988 0.0869892 -0.045257)
(0.0106875 0.139098 -0.0419833)
(0.0153435 0.0771884 -0.0847731)
(0.0126008 0.136693 -0.0421346)
(0.0104305 0.12406 -0.0808956)
(0.0122106 0.121724 -0.081336)
(0.0452318 0.071651 -0.049776)
(0.0205661 0.126306 -0.0432613)
(0.0284018 0.0673976 -0.0894038)
(0.0247623 0.121628 -0.0436959)
(0.0198694 0.111149 -0.0830479)
(0.0235095 0.106716 -0.0842116)
(0.10368 0.0387422 -0.0467996)
(0.0426663 0.102782 -0.046757)
(0.0543174 0.0501283 -0.100739)
(0.0948246 0.0521748 -0.0486632)
(0.0880084 0.0361122 -0.0889097)
(0.080478 0.0459037 -0.0928691)
(0.0547268 0.0932806 -0.0486674)
(0.0399132 0.0871677 -0.0887937)
(0.0484073 0.0790182 -0.0928796)
(0.143122 0.021012 -0.0430807)
(0.128163 0.0342267 -0.0450903)
(0.121006 0.025252 -0.0820252)
(0.163298 0.0186114 -0.0773362)
(0.181717 0.0170964 -0.0431211)
(0.166744 0.01677 -0.0768286)
(0.178204 0.0190488 -0.0432826)
(0.354487 0.00235438 -0.0886057)
(0.37175 0.00297021 -0.0795036)
(0.542583 0.0223948 -0.0156129)
(0.348602 0.00229775 -0.0886609)
(0.299649 0.00217216 -0.170777)
(0.0901294 0.0256822 0.0223635)
(0.105419 0.0416155 0.0265652)
(0.0938608 0.0278778 0.0531504)
(0.193526 0.0433782 0.0565215)
(0.18512 0.0569269 0.054141)
(0.138519 0.0401924 0.0918689)
(0.130437 0.0502828 0.0864646)
(0.0527145 0.0150068 0.011349)
(0.0631772 0.0233405 0.0130583)
(0.0594481 0.0163843 0.0271301)
(0.0299534 0.00998465 0.00697894)
(0.0376746 0.0148542 0.00769744)
(0.0365259 0.0107215 0.0160931)
(0.0137023 0.00772225 0.00520613)
(0.0202353 0.0108449 0.0054108)
(0.0198976 0.00794209 0.0112552)
(0.00640095 0.00921043 0.00453825)
(0.00632997 0.00678522 0.00938995)
(9.93593e-05 0.19036 -0.040525)
(5.22036e-05 0.175247 -0.0756685)
(8.39112e-05 0.222276 -0.0732239)
(5.96093e-05 0.236196 -0.0413294)
(6.87811e-05 0.222244 -0.0731678)
(6.38033e-05 0.236201 -0.0413247)
(0.000243708 0.190256 -0.0405275)
(0.000346763 0.190087 -0.0405309)
(0.000290923 0.175034 -0.0756784)
(0.000203904 0.222045 -0.0732136)
(0.000193564 0.235998 -0.0413175)
(0.000190868 0.22209 -0.0732245)
(0.000202622 0.235931 -0.0413065)
(0.000566453 0.189791 -0.040536)
(0.000709152 0.189417 -0.040545)
(0.000628601 0.174444 -0.0757034)
(0.000431501 0.221431 -0.0732271)
(0.000416701 0.235436 -0.0413257)
(0.000413984 0.221525 -0.0732453)
(0.000426449 0.235302 -0.0413064)
(0.00108215 0.188839 -0.0405572)
(0.00132243 0.188129 -0.0405756)
(0.00118195 0.173291 -0.0757575)
(0.00081992 0.220242 -0.0732784)
(0.000785817 0.234291 -0.0413249)
(0.000781816 0.220387 -0.0732658)
(0.000836053 0.234143 -0.0413302)
(0.00198495 0.187069 -0.0406023)
(0.00241004 0.185763 -0.0406402)
(0.00215491 0.171175 -0.0758741)
(0.00148815 0.218048 -0.0733712)
(0.00143641 0.232242 -0.041357)
(0.0014262 0.218315 -0.0733467)
(0.00150335 0.231998 -0.0413695)
(0.00362911 0.18383 -0.0406979)
(0.00441711 0.18144 -0.0407802)
(0.00393001 0.167319 -0.0761216)
(0.00271517 0.214048 -0.0735618)
(0.00263312 0.228546 -0.0414381)
(0.00260636 0.21454 -0.0735229)
(0.0027402 0.228074 -0.0414536)
(0.00670267 0.177862 -0.0409073)
(0.00828928 0.173416 -0.0411006)
(0.00727616 0.160214 -0.0766579)
(0.00505128 0.20664 -0.0739239)
(0.00488206 0.221698 -0.0415869)
(0.00482797 0.207566 -0.0738523)
(0.00511081 0.220772 -0.0416096)
(0.012752 0.166694 -0.0414185)
(0.0163022 0.158178 -0.0419487)
(0.0139056 0.146904 -0.0779656)
(0.00975192 0.192634 -0.0747857)
(0.00937852 0.208811 -0.0419595)
(0.009256 0.194435 -0.0746154)
(0.00989448 0.207004 -0.0420136)
(0.0259416 0.145265 -0.0429516)
(0.0366329 0.128118 -0.0450615)
(0.0287392 0.121455 -0.0818963)
(0.0208352 0.164563 -0.077317)
(0.0197851 0.183409 -0.0430908)
(0.0193876 0.168457 -0.076733)
(0.0213149 0.17952 -0.0432959)
(0.103623 0.0634972 -0.0498701)
(0.064236 0.103168 -0.0498733)
(0.0741783 0.0738092 -0.0996512)
(0.100416 0.0602553 -0.0901846)
(0.127601 0.0552241 -0.0483869)
(0.110994 0.0521058 -0.0857691)
(0.115956 0.0665666 -0.0505225)
(0.0604739 0.10026 -0.090219)
(0.0554699 0.127559 -0.0484349)
(0.0524074 0.110892 -0.0858311)
(0.0667415 0.11586 -0.0505498)
(0.314913 0.0067218 -0.0886406)
(0.318761 0.0096381 -0.0813392)
(0.4913 0.05027 -0.0173806)
(0.295506 0.00891086 -0.0892318)
(0.251308 0.0066333 -0.174728)
(0.0697786 0.0346068 0.01726)
(0.0756947 0.0442859 0.0185488)
(0.0706518 0.0359842 0.0408839)
(0.146323 0.0770954 0.0470248)
(0.119511 0.0803584 0.0346275)
(0.102224 0.0608145 0.0748207)
(0.0852736 0.0568271 0.0557231)
(0.0436322 0.0211822 0.00940669)
(0.0497727 0.0272518 0.0101658)
(0.0485436 0.0226211 0.022235)
(0.0257696 0.0147661 0.0061293)
(0.0312651 0.0187621 0.0064815)
(0.0312252 0.0156591 0.0139546)
(0.0120186 0.0117814 0.00474293)
(0.017253 0.014425 0.00479596)
(0.0174255 0.0120477 0.0101708)
(0.00552125 0.0125612 0.00412398)
(0.00560103 0.0104883 0.00866774)
(3.93211e-05 0.421831 -0.0783509)
(5.5785e-05 0.394756 -0.0886646)
(-6.37168e-05 0.590587 -0.0151063)
(0.000158672 0.345242 -0.168812)
(5.4022e-05 0.421348 -0.078237)
(8.39283e-05 0.394408 -0.0885484)
(1.94401e-05 0.394346 -0.0885349)
(0.00109413 0.589792 -0.0152537)
(5.27501e-05 0.345328 -0.16838)
(8.17986e-05 0.420806 -0.0782376)
(8.60816e-05 0.394018 -0.0885329)
(5.34276e-05 0.393862 -0.0885305)
(0.00205807 0.589211 -0.0152276)
(7.37013e-05 0.344847 -0.168373)
(0.000126369 0.41934 -0.078128)
(-0.000267468 0.393121 -0.0884729)
(0.000493875 0.392791 -0.088457)
(0.00326728 0.586541 -0.0152072)
(0.000111195 0.343753 -0.167962)
(0.000282421 0.417598 -0.0781606)
(9.75828e-05 0.391685 -0.0884803)
(0.000481498 0.391203 -0.0884807)
(0.00498484 0.585307 -0.0150583)
(0.000237696 0.342098 -0.168094)
(0.000516646 0.414591 -0.0783142)
(0.000286286 0.389252 -0.0885545)
(0.000576581 0.388273 -0.0885525)
(0.00773363 0.582724 -0.0149987)
(0.000413005 0.339165 -0.168423)
(0.000976052 0.408439 -0.0784232)
(0.000813794 0.384177 -0.088451)
(0.00073141 0.38243 -0.0884678)
(0.0132266 0.577131 -0.0149055)
(0.000772768 0.333577 -0.16861)
(0.00182734 0.396993 -0.0787187)
(0.00157137 0.375151 -0.0884772)
(0.00136297 0.371731 -0.0884901)
(0.0264611 0.566376 -0.0148349)
(0.00146523 0.323039 -0.169175)
(0.00406554 0.374374 -0.079536)
(0.00320845 0.357492 -0.0886903)
(0.0036341 0.350901 -0.0889408)
(0.0450027 0.544786 -0.0150846)
(0.00315275 0.302003 -0.170838)
(0.00927277 0.318935 -0.0815538)
(0.00556967 0.316393 -0.0892082)
(0.00927859 0.295787 -0.0894838)
(0.0760246 0.4903 -0.0168106)
(0.00673442 0.251286 -0.175073)
(0.196008 0.163963 -0.0216635)
(0.195452 0.172196 -0.0202668)
(0.150034 0.152004 0.0442029)
(0.205622 0.109888 0.044158)
(0.144494 0.117118 0.0994931)
(0.0519135 0.0341182 0.0114546)
(0.0569118 0.0375054 0.0119624)
(0.0539179 0.0344398 0.0267788)
(0.0767028 0.0615939 0.0200616)
(0.0751563 0.0507553 0.0144292)
(0.0699352 0.0448696 0.0359663)
(0.0658533 0.042268 0.0270039)
(0.0348843 0.0236029 0.00724059)
(0.0392184 0.027514 0.00756156)
(0.0391456 0.0248223 0.0167669)
(0.021349 0.0177056 0.00514817)
(0.0253688 0.0207887 0.00527927)
(0.0259599 0.0185948 0.0115087)
(0.0101282 0.0146882 0.00417701)
(0.014237 0.0167813 0.00413023)
(0.01473 0.0149531 0.00886443)
(0.004592 0.0149323 0.00364695)
(0.00477059 0.0132829 0.007757)
(0.00193732 0.18751 0.0432975)
(0.000862129 0.153677 0.0328211)
(0.000967341 0.155049 0.0775582)
(0.000669652 0.262441 0.0657065)
(0.00139621 0.2624 0.0657235)
(0.00068109 0.203919 0.110605)
(0.00142034 0.203931 0.110654)
(0.003899 0.186824 0.0432941)
(0.0025521 0.153285 0.0328306)
(0.00291413 0.15467 0.0775564)
(0.00282055 0.262153 0.0657356)
(0.00359727 0.261955 0.0657315)
(0.00284378 0.203621 0.110669)
(0.00361724 0.203482 0.11066)
(0.00590562 0.185301 0.0432812)
(0.00408596 0.152285 0.032849)
(0.00489122 0.153715 0.0775447)
(0.00508396 0.261219 0.0657336)
(0.00596681 0.260933 0.0657386)
(0.00511889 0.202734 0.110658)
(0.00599906 0.202459 0.110655)
(0.00807487 0.18199 0.0432508)
(0.00508476 0.150197 0.0328964)
(0.00695343 0.151745 0.07753)
(0.00767407 0.259386 0.0657274)
(0.00879951 0.258848 0.0657401)
(0.00772161 0.200943 0.110635)
(0.00884633 0.200408 0.110628)
(0.0112555 0.176099 0.0431652)
(0.0064494 0.145342 0.033028)
(0.00963108 0.147402 0.0774932)
(0.0112067 0.255717 0.0657158)
(0.0129629 0.254679 0.0657129)
(0.0112496 0.197335 0.110581)
(0.0130083 0.196335 0.110522)
(0.01459 0.156305 0.0431731)
(-0.00198069 0.138463 0.0332396)
(0.010923 0.140643 0.0773207)
(0.0156988 0.249486 0.0656572)
(0.0183448 0.246962 0.0656118)
(0.015718 0.191214 0.110391)
(0.0183198 0.188811 0.110215)
(0.0423367 0.132583 0.0420974)
(0.0119908 0.0919858 0.0348795)
(0.0253735 0.110398 0.0777349)
(0.0298739 0.228211 0.0655896)
(0.0397791 0.224569 0.0653539)
(0.0296996 0.170305 0.110045)
(0.0392987 0.166785 0.109252)
(0.0701815 0.114608 0.0383387)
(0.0492795 0.0790732 0.0332157)
(0.0526609 0.0965335 0.0735125)
(0.0608488 0.211489 0.0641427)
(0.0728333 0.20649 0.0633205)
(0.0598532 0.154307 0.10708)
(0.0710612 0.149437 0.104669)
(0.0934137 0.0865504 0.0308588)
(0.0746497 0.0647745 0.0290299)
(0.0752117 0.0783287 0.0640851)
(0.0956029 0.184561 0.060287)
(0.110772 0.174589 0.0576416)
(0.092095 0.12941 0.0992665)
(0.103928 0.119807 0.0928812)
(0.0927817 0.0596628 0.0206472)
(0.0910768 0.0469629 0.0215111)
(0.0845448 0.051615 0.0473157)
(0.133972 0.130036 0.0496154)
(0.135775 0.0974389 0.0375057)
(0.117973 0.0853577 0.0794549)
(0.111303 0.0617531 0.0589524)
(0.062223 0.0441469 0.0124827)
(0.07599 0.0520411 0.0126968)
(0.0700565 0.0431291 0.0288694)
(0.104598 0.054994 0.0209551)
(0.0830614 0.0537126 0.0147761)
(0.0860262 0.0481409 0.0373304)
(0.0739711 0.0445597 0.0273507)
(0.0423101 0.0330544 0.00806938)
(0.0466998 0.0387362 0.00821546)
(0.0476515 0.0341855 0.018682)
(0.0281728 0.0248702 0.00560024)
(0.0310407 0.0289236 0.00567715)
(0.0326548 0.0263297 0.0127277)
(0.0173319 0.0195348 0.00426133)
(0.0200346 0.0222653 0.0042546)
(0.0213571 0.0205095 0.00936423)
(0.00827271 0.0166127 0.00360016)
(0.0113161 0.0182749 0.00349099)
(0.0121157 0.0168997 0.00756553)
(0.0036672 0.0164232 0.00315649)
(0.00393087 0.0151983 0.00678183)
(0.00151415 0.130647 0.0223541)
(0.000695405 0.109703 0.0177567)
(0.000766082 0.116217 0.0424599)
(0.00284261 0.130096 0.0223855)
(0.00199809 0.109464 0.0177757)
(0.00221776 0.115901 0.0424918)
(0.00359184 0.128978 0.0224642)
(0.00297551 0.108955 0.0178234)
(0.00335233 0.115152 0.0425806)
(0.00275094 0.126934 0.0226736)
(0.00306059 0.108235 0.0179295)
(0.00340632 0.113751 0.042803)
(-0.00351456 0.12332 0.0231023)
(0.00293046 0.108197 0.0181688)
(0.00363161 0.111231 0.0434113)
(-0.0162432 0.0835898 0.0249461)
(-0.00687977 0.106727 0.0185507)
(-0.0129851 0.106822 0.0444641)
(0.0251912 0.042693 0.0259978)
(-0.00131567 0.0381181 0.0505512)
(0.0556827 0.0355761 0.0239069)
(0.0402033 0.0318137 0.0485816)
(0.077854 0.0277397 0.0196823)
(0.0626809 0.0255043 0.0426031)
(0.0921651 0.0436007 0.0135607)
(0.0815945 0.0191991 0.0326518)
(0.0522345 0.0529402 0.00842953)
(0.0416408 0.0723941 0.00774762)
(0.0688214 0.0588078 0.0195775)
(0.0327832 0.0360173 0.00582323)
(0.0294784 0.0448903 0.00559245)
(0.0387804 0.0396141 0.0132971)
(0.0215237 0.0262099 0.00433152)
(0.0212467 0.0305264 0.00422633)
(0.0254793 0.0283548 0.00965659)
(0.0133312 0.0205947 0.00348427)
(0.0144221 0.022926 0.00338464)
(0.0165313 0.0217488 0.00753174)
(0.00641514 0.0176534 0.00304733)
(0.00837611 0.0188456 0.00290114)
(0.00942092 0.0179837 0.00634529)
(0.00274854 0.0170263 0.00268062)
(0.00306953 0.0162595 0.00581201)
(0.00126185 0.0957116 0.0131783)
(0.000608818 0.0827418 0.0108355)
(0.000643098 0.0889329 0.0256993)
(0.00233555 0.095462 0.0132136)
(0.00174412 0.0826508 0.010855)
(0.00184376 0.0887677 0.0257395)
(0.00296532 0.0950887 0.0132886)
(0.00260076 0.0824858 0.0109017)
(0.00275252 0.088433 0.0258393)
(0.0028243 0.0949386 0.0134247)
(0.00290422 0.082334 0.0109929)
(0.00305982 0.0880042 0.0260419)
(0.00222465 0.0946187 0.0136172)
(0.00260711 0.0824011 0.0111422)
(0.00284879 0.088024 0.0263951)
(0.00108059 0.0821195 0.0113169)
(0.00119434 0.0870637 0.0268325)
(0.0160186 0.0508239 0.00491054)
(0.00667433 0.045727 0.00439531)
(0.00879526 0.0579817 0.0106485)
(0.0172373 0.0345777 0.00399555)
(0.0131333 0.0349256 0.00371589)
(0.0166738 0.0384814 0.00874594)
(0.0137226 0.0255184 0.00327945)
(0.0121774 0.0269304 0.00310798)
(0.0148126 0.0276889 0.00711067)
(0.00920726 0.0203924 0.00280151)
(0.00929522 0.0214951 0.00265874)
(0.0109907 0.0215076 0.00594614)
(0.00458515 0.0177172 0.00253443)
(0.00570158 0.0182389 0.00237448)
(0.00662878 0.0180273 0.00522873)
(0.00191329 0.0167214 0.00223813)
(0.00220738 0.01644 0.00488996)
(0.0011657 0.0735734 0.00851218)
(0.00059031 0.0647721 0.00717265)
(0.000593557 0.0699429 0.016804)
(0.00217756 0.073544 0.00854307)
(0.00171147 0.0647987 0.0071873)
(0.00170985 0.069907 0.0168401)
(0.00283379 0.0735698 0.00860598)
(0.0026263 0.0649021 0.00722219)
(0.00258687 0.0698674 0.0169273)
(0.00286888 0.0737769 0.0087104)
(0.0031114 0.0652038 0.00728803)
(0.0029888 0.0699214 0.017095)
(0.00209498 0.0740579 0.00884192)
(0.00289125 0.0658176 0.00738763)
(0.00268943 0.0702068 0.0173573)
(0.00128523 0.0665673 0.00749312)
(0.00117088 0.0703655 0.0176471)
(0.00739626 0.0345241 0.00320066)
(0.00291539 0.0316099 0.00282728)
(0.00382578 0.0365155 0.00672081)
(0.00924416 0.0278807 0.00282832)
(0.00649276 0.0270752 0.00257717)
(0.00831103 0.0298345 0.00600245)
(0.00826254 0.0225611 0.00248727)
(0.00685807 0.0226491 0.00230637)
(0.00848755 0.0239909 0.00526288)
(0.00593992 0.018943 0.00223171)
(0.00567702 0.019159 0.00207807)
(0.00686775 0.0197519 0.00465875)
(0.00306532 0.016894 0.00207818)
(0.00365314 0.0168617 0.00192049)
(0.00435467 0.0171016 0.00425177)
(0.00125306 0.015737 0.00184107)
(0.0014831 0.015837 0.0040497)
(0.00119075 0.0583282 0.00584777)
(0.00061967 0.0519699 0.00500162)
(0.000601391 0.0561323 0.0116113)
(0.00228961 0.0584609 0.00586642)
(0.00184161 0.0520667 0.00500724)
(0.00176209 0.0561868 0.0116331)
(0.00314625 0.0588229 0.00590425)
(0.00298828 0.0523595 0.00502058)
(0.00276654 0.0563671 0.0116859)
(0.00346818 0.0596152 0.00596526)
(0.00390367 0.0530949 0.00504484)
(0.00339942 0.0568479 0.0117869)
(0.00272453 0.0609379 0.00603883)
(0.00421655 0.0546224 0.00507557)
(0.00329855 0.0578415 0.0119388)
(0.00208088 0.0571926 0.00509586)
(0.00150548 0.0593396 0.0120992)
(0.00346581 0.0258322 0.00220379)
(0.00127772 0.0236213 0.00192177)
(0.00175442 0.0265616 0.00452277)
(0.00489095 0.0224674 0.00205522)
(0.0031267 0.0213861 0.00184053)
(0.00415452 0.0234644 0.00426392)
(0.00477376 0.0193216 0.00189717)
(0.00371219 0.0188288 0.00172763)
(0.00473051 0.0201578 0.00393743)
(0.00363754 0.0169548 0.00176685)
(0.00331021 0.0166567 0.00161876)
(0.00410114 0.0174494 0.00363846)
(0.00193907 0.0155281 0.00168338)
(0.0022271 0.0151399 0.00153673)
(0.00271515 0.0156188 0.00342025)
(0.00077997 0.0143694 0.00149326)
(0.000943781 0.0147074 0.00330664)
(0.00128678 0.0471873 0.00416109)
(0.000662566 0.0423914 0.00358468)
(0.000643352 0.0457293 0.00829169)
(0.0025919 0.0473802 0.0041614)
(0.00203236 0.0424695 0.00357955)
(0.00193978 0.0458082 0.008292)
(0.00390158 0.0479506 0.00416117)
(0.00355858 0.0427568 0.00356651)
(0.00324781 0.0460778 0.00829293)
(0.00501103 0.0495048 0.00415515)
(0.00545792 0.0436928 0.00353701)
(0.00446317 0.046869 0.00829258)
(0.00474693 0.0533191 0.0041326)
(0.0080341 0.0466125 0.00346314)
(0.00518616 0.0490279 0.00827399)
(0.0139018 0.053727 0.00329337)
(0.00267684 0.0542035 0.00821251)
(0.00145434 0.0203333 0.0015585)
(-0.00179089 0.0190257 0.00131519)
(0.000719718 0.0206962 0.00314126)
(0.00238864 0.0182994 0.00151293)
(0.00109157 0.0173703 0.00132568)
(0.00190492 0.0188511 0.00308144)
(0.00260989 0.0163603 0.00144922)
(0.00177299 0.0156458 0.00129666)
(0.00247254 0.0168038 0.0029618)
(0.00211941 0.0148708 0.00138865)
(0.00182066 0.0143183 0.00125309)
(0.00232874 0.0151218 0.00282889)
(0.00116838 0.0139389 0.00134661)
(0.00129581 0.01337 0.00121455)
(0.00161388 0.0139333 0.00272098)
(0.000464577 0.0128762 0.0011926)
(0.000572817 0.013323 0.00266153)
(0.00136696 0.0386868 0.00300315)
(0.000664835 0.0350216 0.00258886)
(0.000676505 0.0376895 0.00600285)
(0.00289798 0.0387316 0.00298467)
(0.00207547 0.0349567 0.00257569)
(0.00210661 0.0376892 0.00598178)
(0.00489863 0.0389494 0.00294235)
(0.00377602 0.0348272 0.0025436)
(0.0038271 0.037752 0.00592889)
(0.00818318 0.0396781 0.00284499)
(0.00618517 0.0345952 0.00247756)
(0.00634972 0.0380691 0.00581303)
(0.0153679 0.04165 0.00262391)
(0.0100013 0.0338867 0.00233901)
(0.0106393 0.0391081 0.00554096)
(0.0320236 0.0246977 0.00193771)
(0.0198721 0.0321395 0.0020588)
(0.0244352 0.0418371 0.00493165)
(0.0177791 0.00500039 0.00118379)
(0.0209792 0.0114472 0.00127764)
(0.0261407 0.00619317 0.00279731)
(0.00885069 0.0032567 0.000869197)
(0.0112199 0.00701288 0.000908775)
(0.0125956 0.00362082 0.00191548)
(0.00183486 0.00297876 0.000774054)
(0.00528592 0.00547471 0.000740922)
(0.00547176 0.00280385 0.00154111)
(-0.00555706 0.00945675 0.000914759)
(-0.00132299 0.00585252 0.000728578)
(-0.00288739 0.00307471 0.00153939)
(-0.00141382 0.0154992 0.00108237)
(-0.00262229 0.0127725 0.000920544)
(-0.00415046 0.0154001 0.00210997)
(0.000647571 0.0147122 0.00110941)
(0.000304616 0.0130949 0.000963356)
(0.000259693 0.0148428 0.00221399)
(0.00126491 0.013747 0.00110053)
(0.000807765 0.0128088 0.000971191)
(0.00100103 0.0138952 0.00221959)
(0.00116939 0.0129115 0.00107899)
(0.000985202 0.0122343 0.000959333)
(0.00123064 0.0129807 0.00217945)
(0.000675344 0.0123549 0.00106053)
(0.000739676 0.0117301 0.00094368)
(0.000917461 0.0122789 0.00213392)
(0.000270775 0.0114457 0.000933606)
(0.000334479 0.0119021 0.00210589)
(0.00129963 0.0321214 0.00216139)
(0.000596951 0.0293902 0.00184858)
(0.000639901 0.0314494 0.0043317)
(0.00276607 0.0319074 0.00213462)
(0.00186017 0.0291902 0.00183265)
(0.00199902 0.0313135 0.00429996)
(0.00463344 0.0314811 0.00207881)
(0.00334992 0.0287352 0.00179559)
(0.00362714 0.0310137 0.00422463)
(0.00727718 0.0305736 0.00197157)
(0.00527842 0.0278743 0.00172562)
(0.00581651 0.0304521 0.00407708)
(0.0111657 0.0284332 0.0017739)
(0.0078652 0.0262016 0.0015998)
(0.00894554 0.0292075 0.00379657)
(0.0171289 0.0201573 0.00139873)
(0.0116874 0.0228883 0.00138576)
(0.0142592 0.0262506 0.0032881)
(0.0119659 0.011087 0.00100263)
(0.0119456 0.0143135 0.00101407)
(0.0146751 0.0131306 0.00229673)
(0.00711637 0.00789247 0.0007805)
(0.00802356 0.010158 0.000774107)
(0.00930887 0.00864654 0.00170429)
(0.00289178 0.007092 0.000695446)
(0.0044856 0.00828927 0.000647689)
(0.00492025 0.00691101 0.00141)
(-0.000735338 0.00936604 0.000734363)
(0.00094679 0.00811401 0.000619471)
(0.00042038 0.00707118 0.00136562)
(-0.000147786 0.0117446 0.000801529)
(-0.000253143 0.0106167 0.000685795)
(-0.000860537 0.0113179 0.00156826)
(0.000456674 0.0118842 0.000825137)
(0.000443709 0.0108544 0.000710183)
(0.000400171 0.0116846 0.00163602)
(0.00072821 0.01163 0.00082999)
(0.000553529 0.0108746 0.000720681)
(0.000610565 0.0115812 0.00166266)
(0.000675352 0.011239 0.00082402)
(0.00059415 0.0106314 0.000719058)
(0.000712337 0.0111892 0.00165574)
(0.000394932 0.0109389 0.000816752)
(0.000440004 0.0103716 0.000713309)
(0.000536303 0.0108192 0.0016389)
(0.000161041 0.0102139 0.000708959)
(0.000197061 0.0106046 0.00162673)
(0.00109439 0.0271808 0.00151983)
(0.000475024 0.0252438 0.00127058)
(0.000538016 0.026725 0.00305207)
(0.00230159 0.0267902 0.00149362)
(0.00146847 0.0249629 0.00125616)
(0.00166834 0.0264848 0.00302005)
(0.00374384 0.0260316 0.0014424)
(0.00259138 0.0243456 0.00122379)
(0.00296599 0.0259499 0.00294729)
(0.00553364 0.0246697 0.00135385)
(0.0039168 0.0232691 0.00116649)
(0.00454503 0.0249849 0.00281542)
(0.00764619 0.0222422 0.00121165)
(0.00543792 0.0214954 0.00107336)
(0.0064458 0.0232715 0.00259366)
(0.0096026 0.017526 0.0010011)
(0.00696683 0.0186842 0.000933841)
(0.00853033 0.0202366 0.00224758)
(0.00779827 0.0125768 0.000785549)
(0.00700041 0.0143655 0.000745083)
(0.008606 0.0140963 0.00175231)
(0.00522212 0.00988619 0.000641296)
(0.00533268 0.0113479 0.000600268)
(0.00637271 0.0106158 0.00138629)
(0.0027161 0.00878285 0.000571714)
(0.00338217 0.00961894 0.000513712)
(0.00389671 0.00884967 0.00117634)
(0.00070314 0.0093437 0.000570902)
(0.00150711 0.00901823 0.000482012)
(0.00151137 0.00844538 0.00110873)
(0.000528133 0.0101819 0.000594448)
(0.000585638 0.00961792 0.000499628)
(0.000445032 0.0099192 0.00117373)
(0.000492165 0.0102548 0.000605726)
(0.000516584 0.00968714 0.000509081)
(0.000522141 0.0100581 0.00120324)
(0.000507533 0.0101551 0.000609748)
(0.000453824 0.0096404 0.000514389)
(0.000505414 0.010045 0.00121885)
(0.000424833 0.00995693 0.000608346)
(0.000395943 0.00949477 0.000514609)
(0.00046864 0.00985544 0.00121935)
(0.00024158 0.00979174 0.000605515)
(0.000275214 0.00934158 0.000512427)
(0.000333699 0.00965396 0.00121324)
(9.87668e-05 0.00924741 0.000510527)
(0.000120717 0.00953105 0.00120802)
(0.000808983 0.0236636 0.0010069)
(0.000324536 0.02241 0.000795609)
(0.00039757 0.0233392 0.00202478)
(0.00167813 0.0231914 0.000986323)
(0.000995244 0.0220947 0.000785139)
(0.00122182 0.0230442 0.00199908)
(0.00265573 0.0223245 0.000947882)
(0.00172449 0.0214255 0.00076226)
(0.00212734 0.0224082 0.00194252)
(0.00374584 0.0209313 0.000886002)
(0.00252363 0.0203334 0.000723563)
(0.00313851 0.0213384 0.00184552)
(0.00482375 0.0188306 0.000795546)
(0.00333714 0.0187221 0.000664813)
(0.0041979 0.0196746 0.00169537)
(0.00549831 0.0158434 0.000677829)
(0.0039789 0.0165254 0.00058405)
(0.00507557 0.0172299 0.00148425)
(0.00479089 0.012803 0.000559802)
(0.00396051 0.0138478 0.000487392)
(0.00506194 0.0138509 0.0012251)
(0.0034926 0.0106894 0.000472684)
(0.00321913 0.0116334 0.000406896)
(0.00406177 0.0113052 0.00101272)
(0.00210798 0.00953017 0.00042401)
(0.00222287 0.0101264 0.000354197)
(0.00274967 0.00972171 0.000877132)
(0.000975532 0.00928265 0.000410737)
(0.00125952 0.00933233 0.000329846)
(0.00148891 0.00902776 0.000818339)
(0.000609201 0.00936672 0.000414261)
(0.000669828 0.00916002 0.000329084)
(0.000753387 0.00921563 0.00082422)
(0.000447865 0.00930289 0.000417744)
(0.000452751 0.00901598 0.000330942)
(0.000525822 0.00916992 0.000832487)
(0.000366818 0.00918811 0.00041925)
(0.000339045 0.00888332 0.000332477)
(0.000407797 0.0090766 0.000838118)
(0.000275967 0.00905123 0.000418689)
(0.000259055 0.00874714 0.000332425)
(0.000321316 0.00893632 0.000838474)
(0.000150293 0.00894419 0.000417439)
(0.000168547 0.00863141 0.000331423)
(0.000212709 0.00880373 0.000835845)
(5.89807e-05 0.00856425 0.000330539)
(7.49481e-05 0.00872442 0.000833448)
(0.000490452 0.0214171 0.000573844)
(0.000163444 0.0207647 0.000381731)
(0.000241011 0.0211644 0.00115487)
(0.00100632 0.0209209 0.000561076)
(0.000498171 0.0204401 0.000376305)
(0.000735333 0.020849 0.00113869)
(0.00156064 0.0200483 0.000537941)
(0.000851848 0.0197673 0.000364658)
(0.00126022 0.0201882 0.00110385)
(0.00213288 0.0187448 0.000502374)
(0.00122019 0.0187149 0.000345548)
(0.00181154 0.0191344 0.00104628)
(0.00263366 0.0169746 0.000453317)
(0.00156692 0.0172595 0.000317762)
(0.00233716 0.0176318 0.000961789)
(0.00287394 0.0148007 0.000393614)
(0.00180484 0.0154348 0.000281481)
(0.00270513 0.0156693 0.000850334)
(0.00258505 0.0126283 0.000334487)
(0.00178824 0.0134134 0.000240511)
(0.00268228 0.0133839 0.000723291)
(0.00198653 0.0109117 0.000288409)
(0.00150253 0.0116178 0.000205111)
(0.00224357 0.0114252 0.000614118)
(0.00130955 0.00978175 0.000260033)
(0.00109296 0.0102642 0.000180522)
(0.00161922 0.0100236 0.000539204)
(0.000741703 0.00921028 0.000248193)
(0.000688054 0.00939943 0.000167533)
(0.00100513 0.0092047 0.000500741)
(0.000460507 0.00894785 0.000245765)
(0.000407427 0.00894932 0.000163983)
(0.000587431 0.00888921 0.000491895)
(0.000314708 0.00875959 0.000245675)
(0.000264496 0.00867075 0.000163309)
(0.000383108 0.0086745 0.000491032)
(0.000231162 0.00860608 0.000245652)
(0.000185547 0.00847536 0.000163257)
(0.000271803 0.00850855 0.000491505)
(0.000161408 0.0084791 0.000245159)
(0.000132072 0.00832598 0.000162977)
(0.000195761 0.00836566 0.000490909)
(8.46952e-05 0.00839222 0.000244523)
(8.2023e-05 0.00821861 0.000162496)
(0.00012254 0.00825486 0.000489507)
(2.81125e-05 0.00816059 0.000162118)
(4.21492e-05 0.00819293 0.000488351)
(0.00016371 0.0201421 0.000184192)
(8.04411e-05 0.0199243 0.000370853)
(0.000332841 0.0196458 0.000179886)
(0.000243943 0.0196051 0.000365334)
(0.000507955 0.0187957 0.000172265)
(0.0004128 0.0189487 0.000353651)
(0.000678331 0.0175778 0.000160936)
(0.000582058 0.0179354 0.000334896)
(0.000815026 0.0160137 0.000145927)
(0.00073275 0.0165596 0.000308407)
(0.000869639 0.0142117 0.000128379)
(0.000827441 0.0148709 0.000274953)
(0.000795361 0.012426 0.000111135)
(0.000817987 0.0130326 0.00023832)
(0.00063358 0.0109253 9.72229e-05)
(0.000701629 0.0113754 0.000206067)
(0.000443311 0.00983355 8.8021e-05)
(0.000529224 0.0100909 0.000182735)
(0.000277814 0.0091462 8.33229e-05)
(0.000354506 0.0092293 0.000169294)
(0.000176507 0.00873916 8.1527e-05)
(0.000223238 0.00873266 0.000163956)
(0.000117731 0.00847491 8.08916e-05)
(0.000145181 0.00841939 0.000162109)
(8.17646e-05 0.00828953 8.05817e-05)
(9.89732e-05 0.00820485 0.000161404)
(5.41851e-05 0.00815757 8.03142e-05)
(6.76331e-05 0.00804894 0.000160859)
(2.75778e-05 0.00807528 8.00909e-05)
(4.06672e-05 0.00794168 0.000160325)
(1.37076e-05 0.0078852 0.000159959)
(0.000549277 0.0240513 -0.0910532)
(0.000233551 0.0480361 -0.0992997)
(0.000250723 0.019966 -0.1146)
(0.00127541 0.0239282 -0.0911649)
(0.000775133 0.0478893 -0.0993561)
(0.000829408 0.0198972 -0.114679)
(0.00241563 0.0236792 -0.0914119)
(0.00156713 0.0475474 -0.0994943)
(0.00166496 0.0197376 -0.114871)
(0.00434578 0.023224 -0.0919253)
(0.00287078 0.0469008 -0.099786)
(0.00301689 0.0194383 -0.115272)
(0.00770439 0.0224165 -0.0929943)
(0.0051191 0.0457411 -0.100388)
(0.00529913 0.0189075 -0.116084)
(0.0135868 0.0210028 -0.0952632)
(0.00906121 0.0436985 -0.101649)
(0.00919018 0.017986 -0.117734)
(0.0238172 0.018566 -0.100206)
(0.0159889 0.0401421 -0.104358)
(0.0157711 0.0164096 -0.121126)
(0.0411688 0.0144851 -0.111223)
(0.0280294 0.0340607 -0.110364)