# Field minima and maxima
# Time                	min(U)                	max(U)                	min(p)                	max(p)                
0.0001                	0.00000000000000e+00	0.00000000000000e+00	0.00000000000000e+00	0.00000000000000e+00
